99
Lattice="10.210621920333747 0.0 0.0 5.105310960166873 8.842657971447272 0.0 0.0 0.0 30.421172358872745" Properties=species:S:1:pos:R:3:tags:I:1:forces:R:3 energy=-439.89471435546875 free_energy=-439.89471435546875 stress="0.018844230100512505 1.925509423017502e-06 1.9231811165809631e-07 1.925509423017502e-06 0.0187832061201334 -5.003996193408966e-05 1.9231811165809631e-07 -5.003996193408966e-05 0.011091941967606544" pbc="T T F"
Cu       1.28305228       0.75797108      10.19646543        6      -0.00766698       0.00094094       0.00486857
Cu       3.83500689       0.75969800      10.18991784        6      -0.00424142      -0.00465460       0.01681042
Cu       6.38738953       0.76302377      10.18880643        6      -0.00620641      -0.01669712       0.01682317
Cu       8.93988268       0.76010231      10.19473883        6       0.00081068      -0.00284243       0.00298477
Cu       2.55891471       2.96797607      10.19062792        6      -0.00376756       0.00435532       0.02212318
Cu       5.11209009       2.96841486      10.19028832        6      -0.01088948       0.00509436       0.01405634
Cu       7.66502882       2.96749507      10.19244180        6      -0.00798224       0.00801681       0.00414682
Cu      10.21805100       2.96833467      10.19395550        6      -0.01003741       0.00138608       0.00865221
Cu       3.83454229       5.18023894      10.19063440        6      -0.00415724       0.00289282       0.00994842
Cu       6.38748259       5.18073185      10.19357970        6      -0.00849084      -0.00413564      -0.00049210
Cu       8.93755709       5.17822268      10.19198014        6       0.00546387       0.00814205       0.00394951
Cu      11.49205623       5.17878328      10.18828942        6      -0.00277280       0.01234996       0.01894845
Cu       5.11127119       7.39338888      10.19445694        6      -0.00683038      -0.01166245       0.00917337
Cu       7.66361727       7.39066252      10.19562399        6      -0.00303232      -0.00239399       0.00311834
Cu      10.21617370       7.39395985      10.18678481        6      -0.00466114      -0.01089267       0.02790909
Cu      12.76926648       7.39416251      10.18887682        6      -0.01140258      -0.01304696       0.02176525
Cu       0.00299430       1.49511867      12.25901813        5      -0.00166607      -0.00836158      -0.01737732
Cu       2.55612386       1.49045660      12.25803360        5      -0.00845346       0.01122295      -0.02302630
Cu       5.10756754       1.49365804      12.25597107        5      -0.00821265      -0.00877482      -0.02340668
Cu       7.65882003       1.49407676      12.25490491        5       0.00126200      -0.01266030      -0.01330173
Cu       1.27833900       3.70710318      12.25753728        5       0.00466378      -0.02274088      -0.02380164
Cu       3.83344178       3.70718831      12.25647854        5      -0.01750198      -0.02404706      -0.02821437
Cu       6.38215817       3.70668064      12.25411779        5      -0.00112680      -0.02032186      -0.02045096
Cu       8.93411865       3.70623992      12.25735671        5       0.01039262      -0.01931678      -0.03327020
Cu       2.55702722       5.91340172      12.25732624        5      -0.01323688       0.00711477      -0.03434239
Cu       5.10792064       5.91228669      12.25750893        5      -0.01162502       0.01313983      -0.03201557
Cu       7.65913547       5.91205706      12.25844221        5      -0.00073168       0.00853177      -0.04048910
Cu      10.21114588       5.91174213      12.25462209        5       0.00618256       0.01183279      -0.02699084
Cu       3.82917040       8.12559893      12.25640805        5       0.00400811      -0.00078544      -0.01276518
Cu       6.38409410       8.12415401      12.26063218        5      -0.00989983       0.00669784      -0.02880368
Cu       8.93443394       8.12353449      12.25758197        5       0.00734262       0.00334067      -0.02822158
Cu      11.48703623       8.12479692      12.25515625        5       0.00093619      -0.00277360      -0.02304169
Cu      -0.01015027       0.00278584      14.30059891        4      -0.00275372      -0.00458495      -0.00513701
Cu       2.54160590       0.00149851      14.30158618        4       0.00731255      -0.00082252      -0.01579515
Cu       5.09372916      -0.00137298      14.29537418        4       0.00691359       0.00495354       0.00851545
Cu       7.64963075      -0.00308981      14.29716930        4      -0.00651180       0.00168844      -0.00353668
Cu       1.26770959       2.20865949      14.30157127        4       0.00205355       0.02041465      -0.02418953
Cu       3.81566275       2.20917757      14.29391789        4       0.02948030       0.01849192       0.02396877
Cu       6.37464714       2.20780922      14.28814705        4      -0.01612605       0.01527706       0.06153735
Cu       8.92449406       2.20955933      14.29283769        4       0.00169379       0.00491721       0.01930510
Cu       2.54207301       4.41925676      14.29583500        4       0.01502427       0.02115291       0.02711816
Cu       5.09556367       4.42020340      14.29110931        4       0.00756510       0.01100305       0.05671774
Cu       7.65006466       4.41866877      14.28826443        4      -0.01017485       0.01996762       0.08120379
Cu      10.20296379       4.41838115      14.29500365        4      -0.00394144       0.02147581       0.02145142
Cu       3.82116921       6.63649733      14.29577604        4      -0.00403967      -0.01237418       0.00859676
Cu       6.37088176       6.63665120      14.28995610        4       0.00354240      -0.01879328       0.06215207
Cu       8.92256284       6.63191881      14.29116026        4       0.01959424      -0.00144406       0.04918490
Cu      11.47759134       6.63180749      14.29192255        4      -0.00636911      -0.00152753       0.03391805
Cu       1.25925206       0.73644298      16.32633669        3      -0.00269004      -0.00536077      -0.00272728
Cu       3.81225690       0.73281561      16.33045876        3       0.01547980       0.01557022      -0.02243866
Cu       6.36411210       0.73227113      16.33020942        3       0.00420740       0.01223917      -0.03151125
Cu       8.91445489       0.73051600      16.32741944        3       0.01884290       0.01765640      -0.00716165
Cu       2.53665620       2.94607174      16.33427796        3       0.01870591       0.00733448      -0.05100902
Cu       5.08619393       2.94287734      16.32837737        3       0.01805869      -0.00166527      -0.04186662
Cu       7.64294426       2.94123053      16.32836823        3       0.00255827       0.01341887      -0.04680220
Cu      10.19622304       2.94621471      16.32915604        3      -0.00617447      -0.00473226      -0.01291160
Cu       3.81432608       5.15462572      16.33173366        3       0.00597347       0.00308615      -0.03361168
Cu       6.36551524       5.15780833      16.32834505        3       0.01190473      -0.00013758      -0.04372252
Cu       8.91911569       5.15529529      16.32997687        3      -0.00613292       0.00404189      -0.03004253
Cu      11.46966728       5.15476061      16.33216632        3       0.01118753       0.01037889      -0.04854964
Cu       5.08774838       7.36333325      16.33283709        3       0.01694864      -0.00422132      -0.02842914
Cu       7.64356912       7.36820725      16.32626331        3      -0.00582482      -0.01190829      -0.00341067
Cu      10.19371712       7.36703627      16.33274625        3       0.00491044      -0.01449389      -0.06082978
Cu      12.74600423       7.36449683      16.33064864        3       0.00651597      -0.00515175      -0.02972429
Cu      -0.01051101       1.47694448      18.36306498        2      -0.01226624      -0.00035801       0.00741919
Cu       2.53676890       1.47900387      18.36202173        2       0.01202387      -0.01510075       0.04065879
Cu       5.09176905       1.47517649      18.37204483        2       0.00756756       0.00177032      -0.00567749
Cu       7.64550825       1.47598869      18.36842719        2      -0.00899854      -0.00784434       0.02274064
Cu       1.26569844       3.68636064      18.36789689        2      -0.01644578       0.00819300       0.01621985
Cu       3.81667864       3.68698193      18.37250341        2       0.00350883       0.00052842       0.00002217
Cu       6.36645692       3.68518378      18.35758927        2       0.00688665      -0.00864908       0.00931892
Cu       8.92099701       3.68391868      18.36605497        2       0.00974820       0.01410667       0.00718984
Cu       2.54044543       5.89826154      18.36600278        2       0.01591718      -0.00569907       0.02871469
Cu       5.09367543       5.89144461      18.37875198        2      -0.00100528       0.01228336      -0.03136804
Cu       7.64304634       5.89815495      18.37098345        2       0.00916302       0.00848243      -0.03004732
Cu      10.20175714       5.90105611      18.36749657        2      -0.03144837      -0.02169441       0.01470377
Cu       3.82071486       8.10901539      18.36560818        2      -0.01428996      -0.00311775       0.02096056
Cu       6.36649540       8.11296843      18.36163674        2       0.01755871      -0.02244776       0.02361026
Cu       8.92064692       8.11088083      18.36559730        2      -0.00863882      -0.00672263       0.02474180
Cu      11.47601315       8.10621349      18.36575000        2       0.00642259       0.02906418       0.03743446
Cu       0.00000000       0.00000000      20.42117236        1      -0.00453589      -0.00409730       0.02564151
Cu       2.55265548       0.00000000      20.42117236        1      -0.00644714      -0.00358207       0.01651672
Cu       5.10531096       0.00000000      20.42117236        1      -0.01668137      -0.05807029       0.01575988
Cu       7.65796644       0.00000000      20.42117236        1       0.00900059      -0.03351378       0.02021983
Cu       1.27632774       2.21066449      20.42117236        1      -0.00587665      -0.00173335       0.03098961
Cu       3.82898322       2.21066449      20.42117236        1      -0.22311966      -0.11898801      -0.10166916
Cu       6.38163870       2.21066449      20.42117236        1       0.12624821      -0.26448867      -0.30930853
Cu       8.93429418       2.21066449      20.42117236        1       0.04948093      -0.01691732      -0.01463371
Cu       2.55265548       4.42132899      20.42117236        1      -0.05015413       0.01228653       0.01909475
Cu       5.10531096       4.42132899      20.42117236        1      -0.18263564       0.27507591      -0.29061335
Cu       7.65796644       4.42132899      20.42117236        1       0.25509635       0.14167172      -0.19929899
Cu      10.21062192       4.42132899      20.42117236        1      -0.00774758      -0.00459304       0.02351779
Cu       3.82898322       6.63199348      20.42117236        1      -0.02257011       0.02128147       0.02754920
Cu       6.38163870       6.63199348      20.42117236        1       0.00774308       0.07075325       0.01065685
Cu       8.93429418       6.63199348      20.42117236        1      -0.00116735      -0.00616551       0.03185118
Cu      11.48694966       6.63199348      20.42117236        1       0.00516329       0.00414436       0.02992288
O        5.84006858       3.41071590      22.42117236        0       0.07684366      -0.07704606       0.75133026
C        6.47653541       3.26219325      23.41677082        0       0.11936986      -0.02534072       0.37715667
O        7.05897158       3.10601839      24.42670374        0      -0.15791199       0.05173359      -0.33685672
