99
Lattice="10.210621920333747 0.0 0.0 5.105310960166873 8.842657971447272 0.0 0.0 0.0 30.421172358872745" Properties=species:S:1:pos:R:3:tags:I:1:forces:R:3 energy=-439.8557434082031 free_energy=-439.8557434082031 stress="0.018362050876021385 3.0221417546272278e-06 3.795139491558075e-07 3.0221417546272278e-06 0.018264351412653923 -4.73707914352417e-05 3.795139491558075e-07 -4.73707914352417e-05 0.01100386306643486" pbc="T T F"
Cu       1.26998992       0.75873574      10.19265001        6       0.00139767       0.00165681      -0.00128626
Cu       3.82270850       0.75867298      10.19416658        6      -0.00175213       0.00217919      -0.00323150
Cu       6.37508661       0.75903776      10.19379086        6       0.00019136      -0.00013550      -0.00314721
Cu       8.92817742       0.75846648      10.19185425        6       0.00056636       0.00190723       0.00007010
Cu       2.54629715       2.97046925      10.19418313        6       0.00080385      -0.00210216      -0.00190086
Cu       5.09890902       2.96968322      10.19491907        6      -0.00069742      -0.00055268      -0.00296994
Cu       7.65159748       2.96949215      10.19225365        6      -0.00013613       0.00111493       0.00068272
Cu      10.20411537       2.97005573      10.19217879        6       0.00183661      -0.00088490       0.00047204
Cu       3.82201037       5.18050717      10.19358164        6       0.00144011      -0.00124070      -0.00067718
Cu       6.37465441       5.17979258      10.19342250        6       0.00048899       0.00013479      -0.00216115
Cu       8.92723080       5.18030119      10.19212787        6       0.00272121       0.00050591      -0.00077157
Cu      11.48050534       5.18114809      10.19298556        6      -0.00133990      -0.00212568      -0.00104877
Cu       5.09877156       7.39011467      10.19191022        6       0.00068199       0.00185644       0.00054867
Cu       7.65106106       7.39012328      10.19081550        6       0.00120269       0.00270735       0.00253775
Cu      10.20365324       7.39106431      10.19118312        6       0.00112880      -0.00080869       0.00239072
Cu      12.75686629       7.39099402      10.19169874        6      -0.00030174       0.00070159       0.00189780
Cu      -0.00335323       1.49103533      12.25343912        5      -0.00221727      -0.00002318       0.00007753
Cu       2.54798867       1.49231114      12.25459878        5       0.00086813      -0.00051262       0.00038976
Cu       5.10028021       1.49103901      12.25574735        5       0.00050103      -0.00058965       0.00288020
Cu       7.65362842       1.49122647      12.25260033        5       0.00042441      -0.00169843       0.00379036
Cu       1.27184769       3.70223864      12.25442561        5       0.00048933       0.00032354       0.00195493
Cu       3.82519634       3.70274783      12.25618985        5      -0.00300524      -0.00122651       0.00287489
Cu       6.37718462       3.70172599      12.25525349        5      -0.00059892      -0.00096751       0.00207462
Cu       8.93073241       3.70258184      12.25343541        5      -0.00156730      -0.00166061       0.00086284
Cu       2.54730548       5.91291863      12.25458241        5       0.00010852      -0.00053013       0.00348559
Cu       5.09994750       5.91183492      12.25480348        5      -0.00148136       0.00065874       0.00011772
Cu       7.65299682       5.91202700      12.25306238        5       0.00141417       0.00016412      -0.00032870
Cu      10.20604291       5.91239825      12.25411981        5      -0.00017656      -0.00014142       0.00038398
Cu       3.82515443       8.12309927      12.25309854        5      -0.00196920       0.00005974       0.00181531
Cu       6.37709906       8.12305582      12.25298213        5      -0.00103627       0.00058838       0.00047282
Cu       8.92943861       8.12256853      12.25340688        5      -0.00093725       0.00165528       0.00140955
Cu      11.48202668       8.12204582      12.25377150        5      -0.00014548       0.00203240       0.00302431
Cu      -0.01176029      -0.00290389      14.29444786        4       0.00017712      -0.00118205      -0.00179541
Cu       2.54050828      -0.00135069      14.29197493        4       0.00140400      -0.00110048      -0.00010962
Cu       5.09464006      -0.00512396      14.29512073        4      -0.00040615       0.00173506      -0.00182696
Cu       7.64788689      -0.00407225      14.29253076        4      -0.00098920      -0.00091892      -0.00072319
Cu       1.26539423       2.20824910      14.29552530        4       0.00091862      -0.00061014      -0.00253992
Cu       3.81771721       2.20802933      14.29600164        4       0.00104532       0.00018707      -0.00248035
Cu       6.37364909       2.20553127      14.29405018        4      -0.00181794       0.00003447      -0.00110996
Cu       8.92530279       2.20666818      14.29088327        4      -0.00104402      -0.00096692      -0.00062371
Cu       2.54092205       4.41859473      14.29575615        4       0.00262540       0.00162632      -0.00109604
Cu       5.09579669       4.41837333      14.29780678        4      -0.00138656      -0.00061823      -0.00371388
Cu       7.64923159       4.41695812      14.29272930        4      -0.00094460      -0.00033632      -0.00079108
Cu      10.20153017       4.41761662      14.29567501        4      -0.00087886      -0.00027185      -0.00219464
Cu       3.81600689       6.63035218      14.29433902        4       0.00116401      -0.00181876      -0.00098682
Cu       6.37099956       6.62858467      14.29007027        4      -0.00035227      -0.00001207       0.00112893
Cu       8.92358065       6.62876127      14.29157770        4      -0.00038118      -0.00055868      -0.00024379
Cu      11.47529746       6.62817756      14.29697694        4       0.00005996      -0.00023358      -0.00218595
Cu       1.26525137       0.72662800      16.32356652        3       0.00011161       0.00163139      -0.00057032
Cu       3.81782454       0.72850313      16.32515562        3      -0.00049231       0.00077314       0.00083705
Cu       6.37122525       0.72768697      16.32517454        3      -0.00073550       0.00045642       0.00061616
Cu       8.92112582       0.72945539      16.32504593        3       0.00048486      -0.00170477      -0.00028737
Cu       2.54029311       2.94071509      16.32751297        3      -0.00012040      -0.00154792      -0.00083915
Cu       5.09256731       2.93918169      16.32500928        3       0.00047401      -0.00122770       0.00019192
Cu       7.64996724       2.93734394      16.32374667        3      -0.00129671       0.00013758       0.00010419
Cu      10.19948169       2.93734342      16.32380054        3       0.00115593       0.00271950       0.00099626
Cu       3.81564363       5.15140630      16.32759881        3       0.00170395      -0.00033203      -0.00116258
Cu       6.37118245       5.15031419      16.32298711        3       0.00068415       0.00003246       0.00108136
Cu       8.92462877       5.15026169      16.32323886        3      -0.00129884      -0.00066898       0.00054577
Cu      11.47453682       5.14929212      16.32912183        3       0.00036766       0.00121577      -0.00173123
Cu       5.09482773       7.35812722      16.32318212        3      -0.00037876       0.00299112       0.00087167
Cu       7.64805280       7.35975378      16.32063640        3      -0.00109951       0.00178731       0.00096304
Cu      10.19857061       7.36012163      16.32724022        3       0.00039680       0.00076278      -0.00112347
Cu      12.75148712       7.36045524      16.32719796        3       0.00002828       0.00068739      -0.00141043
Cu      -0.00729993       1.47411717      18.36247911        2      -0.00234476      -0.00063768       0.00182545
Cu       2.54383613       1.47500705      18.36549838        2       0.00045486      -0.00046820      -0.00020846
Cu       5.09858432       1.47571976      18.36877673        2      -0.00058864       0.00136409      -0.00019326
Cu       7.64594539       1.47582340      18.37311344        2       0.00291327       0.00402124      -0.00290966
Cu       1.26701989       3.68495776      18.36758123        2       0.00101197       0.00206691      -0.00278301
Cu       3.82049059       3.68575011      18.36835941        2      -0.00042083      -0.00230336       0.00263725
Cu       6.37237545       3.68301954      18.36013605        2       0.00289188      -0.00091333       0.00380762
Cu       8.92646673       3.68391002      18.36449737        2      -0.00226490       0.00006104       0.00217332
Cu       2.54511381       5.89716095      18.36736772        2      -0.00016825      -0.00130521       0.00414420
Cu       5.09806420       5.89516665      18.36814884        2       0.00145069      -0.00101547       0.00327054
Cu       7.64810831       5.89761781      18.36351405        2      -0.00151665      -0.00182375       0.00092216
Cu      10.20029332       5.89734168      18.36615394        2       0.00257826      -0.00130529       0.00269147
Cu       3.82290363       8.10825381      18.36429819        2      -0.00057508      -0.00151934       0.00148375
Cu       6.37417949       8.10653663      18.36187005        2      -0.00173972      -0.00026756       0.00307187
Cu       8.92459462       8.10876344      18.36511704        2       0.00063615       0.00027897       0.00385588
Cu      11.48004176       8.11037966      18.36831676        2      -0.00185945      -0.00275147       0.00225896
Cu       0.00000000       0.00000000      20.42117236        1       0.00415431      -0.00348187       0.01763713
Cu       2.55265548       0.00000000      20.42117236        1      -0.00195742      -0.00448351       0.02113411
Cu       5.10531096       0.00000000      20.42117236        1      -0.04575896      -0.11214905      -0.00950413
Cu       7.65796644       0.00000000      20.42117236        1       0.04277543      -0.07021034       0.01766465
Cu       1.27632774       2.21066449      20.42117236        1      -0.00035078      -0.00056382       0.02820641
Cu       3.82898322       2.21066449      20.42117236        1      -0.27448356      -0.06447151      -0.15773013
Cu       6.38163870       2.21066449      20.42117236        1       0.17923892      -0.20646879      -0.39843312
Cu       8.93429418       2.21066449      20.42117236        1       0.10048027      -0.01263757      -0.02845877
Cu       2.55265548       4.42132899      20.42117236        1      -0.01694017       0.00335472       0.02616115
Cu       5.10531096       4.42132899      20.42117236        1      -0.15685801       0.31004661      -0.24832855
Cu       7.65796644       4.42132899      20.42117236        1       0.17499398       0.16540954      -0.14325950
Cu      10.21062192       4.42132899      20.42117236        1      -0.00164216      -0.00471344       0.02591809
Cu       3.82898322       6.63199348      20.42117236        1       0.00271845       0.00213291       0.03114471
Cu       6.38163870       6.63199348      20.42117236        1       0.00421174       0.01078791       0.02393633
Cu       8.93429418       6.63199348      20.42117236        1      -0.00575403      -0.00625674       0.02713977
Cu      11.48694966       6.63199348      20.42117236        1       0.00654282       0.00027192       0.02430039
O        5.84923391       2.92898226      22.42117236        0      -0.00114534       0.00210440       0.72594744
C        6.33133664       3.06729454      23.49808721        0      -0.00154725      -0.00235974      -0.00040966
O        6.78295552       3.19864223      24.57168060        0      -0.00722216      -0.00550242      -0.00359763
