99
Lattice="10.210621920333747 0.0 0.0 5.105310960166873 8.842657971447272 0.0 0.0 0.0 30.421172358872745" Properties=species:S:1:pos:R:3:tags:I:1:forces:R:3 energy=-439.9798583984375 free_energy=-439.9798583984375 stress="0.01849314384162426 1.4677643775939941e-06 1.1548399925231934e-06 1.4677643775939941e-06 0.018344374373555183 -5.802325904369354e-05 1.1548399925231934e-06 -5.802325904369354e-05 0.009494162164628506" pbc="T T F"
Cu       1.26836329       0.75269930      10.23551127        6       0.00250239      -0.00448568      -0.02360536
Cu       3.82155946       0.75140611      10.23774508        6       0.00195146       0.00160195      -0.03266177
Cu       6.37394860       0.75255469      10.23818176        6       0.00282462      -0.00469347      -0.03305734
Cu       8.92606796       0.75192288      10.23720324        6       0.00592385      -0.00108464      -0.02959835
Cu       2.54532598       2.96138196      10.23522243        6       0.00251316       0.00280599      -0.02138921
Cu       5.09871704       2.96108626      10.23768104        6      -0.00182044       0.00572850      -0.03107931
Cu       7.65161052       2.96163922      10.23733010        6      -0.00286084       0.00369625      -0.03008302
Cu      10.20291877       2.96231663      10.23558490        6       0.00218236      -0.00050181      -0.02418167
Cu       3.82097165       5.17256283      10.23957145        6       0.00535895       0.00393441      -0.03729885
Cu       6.37431614       5.17248659      10.23985109        6       0.00036553       0.00312244      -0.03841705
Cu       8.92661448       5.17350377      10.24017084        6       0.00332233       0.00093804      -0.04011164
Cu      11.47924786       5.17250774      10.24007008        6       0.00242775       0.00499584      -0.03763510
Cu       5.09891243       7.38481283      10.23801906        6      -0.00180166      -0.00583359      -0.02771129
Cu       7.65134698       7.38454627      10.23743243        6      -0.00275535      -0.00411250      -0.03002116
Cu      10.20389467       7.38450442      10.23915196        6       0.00150171      -0.00459982      -0.03454424
Cu      12.75632647       7.38466582      10.23867691        6       0.00034992      -0.00471046      -0.03183993
Cu      -0.00216626       1.48252282      12.29022383        5       0.00043567       0.00702704      -0.00601314
Cu       2.55041016       1.48250880      12.28941623        5       0.00034224       0.00996995      -0.00725578
Cu       5.10364503       1.48430342      12.29046321        5      -0.00226751       0.00169299      -0.00913409
Cu       7.65549273       1.48345475      12.29018757        5      -0.00022821       0.00358189      -0.00583029
Cu       1.27363283       3.69452759      12.28898528        5       0.00286077      -0.00092742      -0.00214189
Cu       3.82777411       3.69553073      12.29002496        5      -0.00568938      -0.00433278      -0.00777294
Cu       6.37982923       3.69473733      12.29118122        5      -0.00171755      -0.00310892      -0.01047996
Cu       8.93172351       3.69472669      12.28968554        5       0.00298926      -0.00221578      -0.00475661
Cu       2.55081372       5.90522544      12.29096070        5      -0.00328645       0.00616033      -0.00889347
Cu       5.10356029       5.90377079      12.29153825        5      -0.00389107       0.01010723      -0.01611643
Cu       7.65527380       5.90409687      12.29095681        5       0.00202950       0.00912295      -0.01429406
Cu      10.20750442       5.90470563      12.29148591        5       0.00422288       0.00681031      -0.00819111
Cu       3.82672925       8.11605240      12.29070161        5       0.00036058       0.00142677      -0.00824751
Cu       6.38034752       8.11521745      12.29095432        5      -0.00416240       0.00559599      -0.01366821
Cu       8.93152162       8.11569036      12.28919751        5       0.00350534       0.00255300      -0.00308363
Cu      11.48442349       8.11611200      12.29071909        5       0.00001133       0.00133428      -0.00565776
Cu      -0.00302592      -0.00641391      14.32133835        4       0.00024207       0.00271122       0.00170033
Cu       2.55134063      -0.00449838      14.32038945        4      -0.00256101      -0.00159487       0.00065445
Cu       5.10187439      -0.00210623      14.32026370        4      -0.00197837      -0.00216056       0.00076341
Cu       7.65477478      -0.00348635      14.32170852        4      -0.00236872      -0.00182990       0.00043118
Cu       1.27609561       2.20820511      14.31970154        4      -0.00254841      -0.00205293       0.00071441
Cu       3.82831428       2.20769431      14.31964396        4      -0.00259667      -0.00174624       0.00089822
Cu       6.37869487       2.20730897      14.32217706        4      -0.00224131      -0.00172400       0.00059878
Cu       8.92946744       2.20718272      14.31972071        4       0.00099114      -0.00099923       0.00122265
Cu       2.55179980       4.41979648      14.31996138        4      -0.00246814      -0.00205912       0.00095885
Cu       5.10378231       4.41806172      14.32196856        4      -0.00253015      -0.00194654       0.00103750
Cu       7.65429567       4.41821055      14.32028796        4      -0.00158615      -0.00170559       0.00236708
Cu      10.20749558       4.41733775      14.32078244        4      -0.00210492      -0.00129802       0.00062715
Cu       3.82744646       6.62765902      14.32044440        4      -0.00248376      -0.00165960       0.00128598
Cu       6.37933609       6.62639137      14.31883633        4      -0.00152750       0.00256000       0.00888253
Cu       8.93034260       6.62831810      14.31936250        4      -0.00044081      -0.00081357       0.00224409
Cu      11.48435513       6.62879204      14.32118333        4      -0.00247191      -0.00182670       0.00074696
Cu       1.27791507       0.73007907      16.34093829        3      -0.00437056      -0.00147216      -0.00172284
Cu       3.82887826       0.72935390      16.34203150        3      -0.00330847       0.00031366       0.00500178
Cu       6.38008532       0.72876578      16.34461926        3      -0.00266870      -0.00145054       0.00179601
Cu       8.93174768       0.72831757      16.34100444        3       0.00058249       0.00012681       0.00316507
Cu       2.55351406       2.94141215      16.34304943        3      -0.00267523      -0.00064428       0.00228122
Cu       5.10402425       2.93838217      16.34549096        3      -0.00313340      -0.00046019       0.00254278
Cu       7.65711708       2.93886902      16.34411899        3      -0.00217945      -0.00016754       0.00263118
Cu      10.21050496       2.94142696      16.33903792        3      -0.00261854      -0.00200706       0.00204462
Cu       3.82979768       5.15164867      16.34761039        3      -0.00293183      -0.00165915       0.00088767
Cu       6.38092951       5.15092408      16.34712313        3      -0.00236816      -0.00122535       0.00093357
Cu       8.93287872       5.15262017      16.34337851        3      -0.00240639      -0.00176666       0.00129165
Cu      11.48653021       5.15191416      16.34227679        3      -0.00274614      -0.00109619       0.00425038
Cu       5.10376817       7.35839308      16.34533118        3      -0.00166396      -0.00137743       0.00178200
Cu       7.65932823       7.36292549      16.34177488        3      -0.00403928      -0.00215448       0.00215838
Cu      10.20949509       7.36322519      16.34332580        3      -0.00254826      -0.00226162       0.00143104
Cu      12.76224431       7.36285668      16.34282008        3      -0.00241974      -0.00257345       0.00362219
Cu      -0.00029360       1.47035477      18.36975032        2      -0.01724576       0.01307420       0.01379239
Cu       2.54344874       1.47361744      18.37356935        2       0.02543165       0.00910510       0.01911048
Cu       5.09780511       1.47178433      18.37982185        2       0.00733597       0.00995683      -0.00378994
Cu       7.65547924       1.47004189      18.37566433        2      -0.00963035       0.01351117       0.00339940
Cu       1.26957506       3.68217855      18.37649042        2       0.00628651       0.00948658      -0.00363922
Cu       3.82186958       3.68620847      18.38236338        2       0.01014349      -0.00382824      -0.01075803
Cu       6.37223023       3.68392711      18.37649480        2       0.01215051      -0.00428526      -0.03400984
Cu       8.93271978       3.68146873      18.37316702        2      -0.01169949       0.00792517      -0.00128859
Cu       2.54467886       5.89663798      18.37979357        2       0.01681368      -0.00699179      -0.00836900
Cu       5.09809134       5.88835824      18.38991903        2       0.01120349      -0.00004122      -0.02377082
Cu       7.65319062       5.89857413      18.37889087        2      -0.00897016      -0.01212420      -0.01018711
Cu      10.20553146       5.89607690      18.37735201        2      -0.00565483      -0.00506053      -0.00811498
Cu       3.82669626       8.10596525      18.37599516        2      -0.00302459      -0.00366730       0.00187134
Cu       6.37628497       8.10846347      18.37197828        2       0.00007528      -0.02137337       0.01682706
Cu       8.92863210       8.10674033      18.37741092        2       0.00025430       0.00576987      -0.00159476
Cu      11.48146009       8.10417831      18.37799345        2       0.00547622       0.01752332      -0.00161360
Cu       0.00000000       0.00000000      20.42117236        1       0.00980635      -0.00593771       0.06292082
Cu       2.55265548       0.00000000      20.42117236        1       0.00013617      -0.00642909       0.07119922
Cu       5.10531096       0.00000000      20.42117236        1      -0.00251707      -0.02783178       0.07532268
Cu       7.65796644       0.00000000      20.42117236        1       0.00364460      -0.02622573       0.06824645
Cu       1.27632774       2.21066449      20.42117236        1       0.00048963      -0.00757194       0.06667926
Cu       3.82898322       2.21066449      20.42117236        1      -0.21283609      -0.21748149      -0.11638125
Cu       6.38163870       2.21066449      20.42117236        1       0.16529547      -0.33076513      -0.27511433
Cu       8.93429418       2.21066449      20.42117236        1       0.04050282      -0.01688471       0.00097663
Cu       2.55265548       4.42132899      20.42117236        1      -0.17341988       0.02360245       0.01162288
Cu       5.10531096       4.42132899      20.42117236        1      -0.14081581       0.28802696      -0.45452648
Cu       7.65796644       4.42132899      20.42117236        1       0.27682704       0.09704554      -0.15827987
Cu      10.21062192       4.42132899      20.42117236        1       0.01327394      -0.00127614       0.06182298
Cu       3.82898322       6.63199348      20.42117236        1      -0.05173621       0.08540701       0.05452521
Cu       6.38163870       6.63199348      20.42117236        1       0.04375539       0.13005449       0.01276846
Cu       8.93429418       6.63199348      20.42117236        1       0.00828567      -0.00315170       0.08232524
Cu      11.48694966       6.63199348      20.42117236        1      -0.00075540       0.00182640       0.07613417
O        5.37667836       3.78277760      22.42117236        0       0.00345451       0.02083269       0.85000926
C        6.37724491       3.42182869      22.96956104        0       0.15942767      -0.13743544       0.15882079
O        7.27359977       3.05756245      23.63568594        0      -0.12909643       0.09164035      -0.02139858
