99
Lattice="10.210621920333747 0.0 0.0 5.105310960166873 8.842657971447272 0.0 0.0 0.0 30.421172358872745" Properties=species:S:1:pos:R:3:tags:I:1:forces:R:3 energy=-439.83648681640625 free_energy=-439.83648681640625 stress="0.01835542358458042 3.1390227377414703e-06 3.6833807826042175e-07 3.1390227377414703e-06 0.018259327858686447 -4.727952182292938e-05 3.6833807826042175e-07 -4.727952182292938e-05 0.011019023135304451" pbc="T T F"
Cu       1.27977426       0.76043190      10.19351878        6       0.00016913      -0.00116189      -0.00016680
Cu       3.83244043       0.75988575      10.19413086        6      -0.00196944       0.00101074      -0.00227500
Cu       6.38443762       0.76054283      10.19377084        6       0.00197936      -0.00223140      -0.00199186
Cu       8.93787895       0.75978241      10.19335477        6       0.00076835       0.00112276      -0.00082730
Cu       2.55695359       2.96894064      10.19323261        6      -0.00522574       0.00762247       0.00032532
Cu       5.10952672       2.96779600      10.19444034        6      -0.00396719       0.01003523      -0.00272961
Cu       7.66292526       2.96838661      10.19212193        6      -0.00529111       0.00949042       0.00266218
Cu      10.21482706       2.96980550      10.19231440        6      -0.00195189       0.00518894       0.00308114
Cu       3.83194318       5.18002348      10.19575578        6      -0.00022681       0.00490334      -0.00607960
Cu       6.38471119       5.17934899      10.19567436        6       0.00021362       0.00679101      -0.00699088
Cu       8.93736675       5.18124518      10.19434914        6       0.00136795       0.00212344      -0.00437740
Cu      11.48974444       5.18112644      10.19559281        6       0.00065492       0.00205204      -0.00512414
Cu       5.10997520       7.39274373      10.19707249        6      -0.00377199      -0.00282641      -0.00728464
Cu       7.66299978       7.39275721      10.19542807        6      -0.00783151      -0.00181556      -0.00399266
Cu      10.21456997       7.39380188      10.19387980        6      -0.00340858      -0.00526850      -0.00138529
Cu      12.76627111       7.39278720      10.19569379        6       0.00235495      -0.00214185      -0.00451940
Cu       0.00332639       1.49663768      12.25512717        5      -0.00467772      -0.00405254      -0.00108894
Cu       2.55445455       1.49652565      12.25493763        5      -0.00211988      -0.00263897       0.00051612
Cu       5.10643920       1.49549729      12.25628170        5       0.00018880      -0.00438338      -0.00208042
Cu       7.65972080       1.49521589      12.25360171        5      -0.00095196      -0.00276172       0.00342217
Cu       1.27876232       3.70688100      12.25519089        5      -0.00228430      -0.00165014       0.00428329
Cu       3.83094234       3.70634384      12.25574085        5      -0.00285002      -0.00223311       0.00388712
Cu       6.38354963       3.70597820      12.25538976        5      -0.00013041      -0.00380223       0.00441048
Cu       8.93695395       3.70726633      12.25418450        5      -0.00114111      -0.00422203       0.00486015
Cu       2.55477929       5.91710499      12.25625611        5      -0.00342554      -0.00226986       0.00221526
Cu       5.10632797       5.91652887      12.25527989        5      -0.00007589      -0.00243807       0.00186866
Cu       7.66006646       5.91648097      12.25440532        5      -0.00311128      -0.00208070       0.00236919
Cu      10.21253084       5.91778332      12.25529893        5      -0.00171246      -0.00583344       0.00404373
Cu       3.83090878       8.12967388      12.25532157        5      -0.00022629      -0.00590835       0.00211416
Cu       6.38439582       8.12977859      12.25666551        5      -0.00484303      -0.00580095      -0.00303062
Cu       8.93593569       8.12891189      12.25601295        5      -0.00192145      -0.00567134       0.00116493
Cu      11.48761611       8.12786263      12.25548403        5       0.00230434      -0.00339478       0.00367857
Cu      -0.01190638       0.00273601      14.29751174        4       0.00346471       0.00069894      -0.00394410
Cu       2.54177955       0.00534953      14.29559679        4       0.00093079      -0.00241739      -0.00136780
Cu       5.09574548       0.00011702      14.29552609        4      -0.00007608      -0.00030446      -0.00092567
Cu       7.64879981      -0.00025499      14.29550482        4      -0.00142917       0.00034127      -0.00120759
Cu       1.26617899       2.21481004      14.29482735        4       0.00096362      -0.00117139      -0.00023613
Cu       3.81857781       2.21295763      14.29397731        4       0.00060230      -0.00075745       0.00043073
Cu       6.37267578       2.20980562      14.29303270        4      -0.00055098       0.00198098       0.00032573
Cu       8.92395272       2.21223869      14.29132784        4       0.00093809       0.00046723       0.00231114
Cu       2.54296821       4.42419029      14.29850619        4       0.00067895      -0.00050431      -0.00229439
Cu       5.09428175       4.42307187      14.29772222        4       0.00176706       0.00065538      -0.00360098
Cu       7.64827744       4.42225364      14.29602676        4      -0.00027694       0.00054716      -0.00282430
Cu      10.20211036       4.42267658      14.29842238        4      -0.00129364       0.00135977      -0.00497111
Cu       3.81890751       6.63628359      14.29502675        4      -0.00043121      -0.00301464      -0.00035827
Cu       6.36973088       6.63458915      14.29059662        4       0.00367585       0.00147506       0.00505473
Cu       8.92226031       6.63338706      14.29303965        4       0.00330991       0.00079248       0.00122198
Cu      11.47684963       6.63235962      14.29598235        4      -0.00040543      -0.00036702      -0.00087957
Cu       1.26041856       0.73591744      16.32285057        3       0.00192536      -0.00118153       0.00084320
Cu       3.81672904       0.73514043      16.32676118        3      -0.00231683      -0.00175060      -0.00114057
Cu       6.36438598       0.73661375      16.32777408        3       0.00367738      -0.00438730      -0.00134326
Cu       8.91521223       0.73514489      16.32602924        3       0.00770190      -0.00065885       0.00074597
Cu       2.53995136       2.94766020      16.32888177        3      -0.00203406      -0.00322574      -0.00223876
Cu       5.08868528       2.94419553      16.32537826        3       0.00151235      -0.00003510       0.00002623
Cu       7.64191436       2.94410666      16.32368350        3       0.00536258       0.00034120       0.00295943
Cu      10.19362794       2.94554727      16.32532809        3       0.00405577      -0.00122080      -0.00041031
Cu       3.81303389       5.15653579      16.33109199        3       0.00097178       0.00014571      -0.00325233
Cu       6.36532002       5.16029738      16.32548604        3       0.00052009      -0.00336232      -0.00105443
Cu       8.91690474       5.15626540      16.32769217        3       0.00338973      -0.00050707      -0.00200656
Cu      11.46902686       5.15730201      16.32960076        3       0.00374136      -0.00099379      -0.00068350
Cu       5.08925093       7.36334982      16.32636474        3       0.00311881       0.00882617      -0.00051012
Cu       7.64313142       7.36557384      16.32163061        3       0.00078862       0.00617375       0.00250854
Cu      10.19303864       7.36650496      16.32641460        3       0.00410887      -0.00079896       0.00087642
Cu      12.74467425       7.36685694      16.32740846        3       0.00638569       0.00011820       0.00090748
Cu      -0.01010974       1.47683492      18.36265564        2      -0.00028048       0.00170387      -0.00073580
Cu       2.54001966       1.47764345      18.36448415        2       0.00128157       0.00131166       0.00103150
Cu       5.09450993       1.47875038      18.37152869        2       0.00333297       0.00171222      -0.00207246
Cu       7.64501147       1.47788660      18.37140437        2      -0.00048760       0.00232631      -0.00064988
Cu       1.26378738       3.68787522      18.36707560        2       0.00128093       0.00272002      -0.00303321
Cu       3.81721576       3.68815888      18.37102871        2       0.00536187       0.00196193      -0.00305676
Cu       6.36907852       3.68693363      18.35831103        2       0.00195033       0.00067182      -0.00073653
Cu       8.92186457       3.68601742      18.36613695        2       0.00397714       0.00374131      -0.00109483
Cu       2.54175359       5.90041303      18.36889741        2       0.00174045      -0.00334428      -0.00354913
Cu       5.09481513       5.89810823      18.37233185        2       0.00063304      -0.00481320      -0.00291791
Cu       7.64492244       5.90157163      18.36622480        2      -0.00083502      -0.00621996       0.00113565
Cu      10.19672542       5.89966719      18.36770211        2       0.00373995      -0.00023622      -0.00184181
Cu       3.82047345       8.11090535      18.36555465        2      -0.00499843      -0.00121890      -0.00123728
Cu       6.37103202       8.11050760      18.36124337        2      -0.00029289       0.00027897       0.00495551
Cu       8.92090528       8.11159504      18.36562909        2       0.00583566      -0.00117642      -0.00027612
Cu      11.47617797       8.11225265      18.36876450        2       0.00071946       0.00155451      -0.00249141
Cu       0.00000000       0.00000000      20.42117236        1       0.00089092      -0.00209829       0.02069822
Cu       2.55265548       0.00000000      20.42117236        1      -0.00261051      -0.00217032       0.02171976
Cu       5.10531096       0.00000000      20.42117236        1      -0.02741496      -0.06396366       0.01455866
Cu       7.65796644       0.00000000      20.42117236        1       0.02306906      -0.04539822       0.02693580
Cu       1.27632774       2.21066449      20.42117236        1      -0.00161207       0.00216495       0.02629437
Cu       3.82898322       2.21066449      20.42117236        1      -0.20979266      -0.07958620      -0.07637285
Cu       6.38163870       2.21066449      20.42117236        1       0.10539898      -0.25447339      -0.32773015
Cu       8.93429418       2.21066449      20.42117236        1       0.09090181      -0.02045318      -0.02675577
Cu       2.55265548       4.42132899      20.42117236        1      -0.02695904       0.00779161       0.02539610
Cu       5.10531096       4.42132899      20.42117236        1      -0.19021547       0.27271619      -0.25251526
Cu       7.65796644       4.42132899      20.42117236        1       0.24427912       0.18874864      -0.20985121
Cu      10.21062192       4.42132899      20.42117236        1      -0.00296077      -0.00414496       0.02720534
Cu       3.82898322       6.63199348      20.42117236        1      -0.00684189       0.01209290       0.03345567
Cu       6.38163870       6.63199348      20.42117236        1       0.00567751       0.04486421       0.01475525
Cu       8.93429418       6.63199348      20.42117236        1      -0.00239438      -0.00445031       0.03158192
Cu      11.48694966       6.63199348      20.42117236        1       0.00344805       0.00408161       0.02604848
O        6.00319652       3.26458627      22.42117236        0      -0.03304857      -0.02571296       0.56474322
C        6.51054519       3.20525447      23.49300909        0       0.02246976      -0.01631824       0.15476699
O        6.98142537       3.13296283      24.56501695        0      -0.01690615       0.01231474      -0.05227945
