99
Lattice="10.210621920333747 0.0 0.0 5.105310960166873 8.842657971447272 0.0 0.0 0.0 30.421172358872745" Properties=species:S:1:pos:R:3:tags:I:1:forces:R:3 energy=-439.82794189453125 free_energy=-439.82794189453125 stress="0.018360275775194168 3.0370429158210754e-06 3.5995617508888245e-07 3.0370429158210754e-06 0.01826588809490204 -4.7277193516492844e-05 3.5995617508888245e-07 -4.7277193516492844e-05 0.011020204052329063" pbc="T T F"
Cu       1.27882925       0.76077890      10.18943240        6      -0.00066032       0.00010501       0.00350896
Cu       3.83112856       0.75982640      10.19238345        6      -0.00070373       0.00327169      -0.00304352
Cu       6.38410852       0.75874712      10.19247434        6      -0.00135338       0.00566691      -0.00227697
Cu       8.93732037       0.75965066      10.18988606        6      -0.00261543       0.00320718       0.00250822
Cu       2.55520372       2.97146782      10.19148633        6      -0.00160421       0.00017373      -0.00148526
Cu       5.10772019       2.97021161      10.19302333        6      -0.00036112       0.00156718       0.00037330
Cu       7.66062613       2.97116382      10.19051077        6      -0.00024459       0.00022530       0.00537391
Cu      10.21321847       2.97182331      10.18968202        6      -0.00110761       0.00014574       0.00468681
Cu       3.83109156       5.18089728      10.19341743        6       0.00069028       0.00266296      -0.00146838
Cu       6.38400252       5.18014514      10.19190876        6       0.00014356       0.00505460       0.00400742
Cu       8.93774040       5.18253119      10.19146826        6      -0.00431223      -0.00137941       0.00280498
Cu      11.48933415       5.18225013      10.19439601        6      -0.00115006      -0.00025199      -0.00553178
Cu       5.10841480       7.39143920      10.19317920        6      -0.00094726       0.00246539      -0.00284419
Cu       7.66096612       7.39272479      10.19160285        6      -0.00409974      -0.00083135       0.00161526
Cu      10.21308587       7.39216584      10.19359973        6      -0.00038500       0.00150484      -0.00379234
Cu      12.76591016       7.39172962      10.19432923        6       0.00048994       0.00241385      -0.00478501
Cu       0.00177739       1.49573709      12.25144628        5      -0.00127754      -0.00109500       0.00137175
Cu       2.55353160       1.49770955      12.25217254        5      -0.00144803      -0.00728030       0.00093643
Cu       5.10600470       1.49489030      12.25391781        5       0.00079641      -0.00141928      -0.00136910
Cu       7.65964726       1.49481098      12.25214070        5      -0.00158084       0.00019821      -0.00067655
Cu       1.27832984       3.70650695      12.25354722        5      -0.00545470       0.00240610       0.00312313
Cu       3.82953391       3.70544839      12.25481783        5       0.00240287       0.00369312      -0.00038491
Cu       6.38401002       3.70469208      12.25557402        5      -0.00419007       0.00407736      -0.00506725
Cu       8.93718536       3.70641331      12.25293739        5      -0.00415787       0.00108915       0.00191852
Cu       2.55312597       5.91727740      12.25466252        5       0.00198692      -0.00287862       0.00078238
Cu       5.10558479       5.91668793      12.25369822        5       0.00166156      -0.00436244      -0.00187540
Cu       7.65957710       5.91678574      12.25245724        5      -0.00273785      -0.00331846      -0.00033313
Cu      10.21237379       5.91804170      12.25484970        5      -0.00460472      -0.00647287      -0.00056734
Cu       3.83126905       8.12916242      12.25361208        5      -0.00266678      -0.00618597      -0.00154130
Cu       6.38337419       8.12958805      12.25292989        5      -0.00156415      -0.00585569      -0.00065247
Cu       8.93595870       8.12891561      12.25381396        5      -0.00557171      -0.00560385       0.00054228
Cu      11.48831316       8.12774288      12.25459818        5      -0.00093727      -0.00426529      -0.00032065
Cu      -0.01147034       0.00297583      14.29336377        4       0.00465480       0.00380581       0.00043837
Cu       2.54235096       0.00604278      14.29099611        4       0.00002555      -0.00232747       0.00047815
Cu       5.09641913       0.00073307      14.29342327        4      -0.00067675      -0.00103239       0.00012447
Cu       7.64783410       0.00129885      14.29279419        4       0.00062827       0.00056401       0.00159674
Cu       1.26614754       2.21708047      14.29048601        4       0.00129588      -0.00301609       0.00453529
Cu       3.81999492       2.21425915      14.29212074        4      -0.00076235      -0.00225648       0.00043675
Cu       6.37186305       2.21118148      14.29274828        4       0.00034569       0.00029797      -0.00017464
Cu       8.92399067       2.21347964      14.28994691        4       0.00058829      -0.00110398       0.00206840
Cu       2.54433380       4.42707406      14.29603856        4      -0.00078080      -0.00292971      -0.00089170
Cu       5.09450033       4.42469506      14.29610656        4       0.00086054      -0.00130133      -0.00245111
Cu       7.64755501       4.42413707      14.29509004        4       0.00069028      -0.00077739      -0.00297422
Cu      10.20110308       4.42493066      14.29597888        4      -0.00044437      -0.00191528      -0.00191567
Cu       3.81801318       6.63537236      14.29296074        4       0.00091857      -0.00091359       0.00172211
Cu       6.37025480       6.63441735      14.28971223        4       0.00349627       0.00403827       0.00362740
Cu       8.92279978       6.63396760      14.29188132        4       0.00167102       0.00134169       0.00145703
Cu      11.47648110       6.63251535      14.29518441        4       0.00057547       0.00201153      -0.00023093
Cu       1.26258634       0.73571369      16.32283792        3       0.00074737       0.00011753      -0.00266705
Cu       3.81714416       0.73529403      16.32503379        3      -0.00158084      -0.00148792      -0.00089282
Cu       6.36661707       0.73621146      16.32604949        3       0.00056250      -0.00301069      -0.00102295
Cu       8.91727814       0.73651883      16.32579700        3       0.00346810      -0.00207746      -0.00312844
Cu       2.53993244       2.94692653      16.32633611        3      -0.00140830      -0.00250839      -0.00147279
Cu       5.09023849       2.94488950      16.32462384        3      -0.00032300      -0.00166296      -0.00047709
Cu       7.64289664       2.94499319      16.32287988        3       0.00440438      -0.00067580       0.00260032
Cu      10.19464280       2.94535390      16.32303153        3       0.00487724      -0.00029443       0.00015413
Cu       3.81289373       5.15759425      16.32914969        3       0.00211228       0.00007814      -0.00208144
Cu       6.36534444       5.15963433      16.32433093        3       0.00092818      -0.00211796      -0.00045765
Cu       8.91797354       5.15654551      16.32592533        3       0.00142764      -0.00057332      -0.00138103
Cu      11.46999107       5.15800960      16.32846834        3       0.00334434      -0.00229754      -0.00153838
Cu       5.09062339       7.36739172      16.32272090        3       0.00012817      -0.00079039       0.00192417
Cu       7.64352546       7.36792296      16.32048480        3       0.00046360       0.00011083       0.00116858
Cu      10.19469638       7.36638775      16.32546320        3       0.00160391      -0.00036207      -0.00065300
Cu      12.74614256       7.36800703      16.32616081        3       0.00467042      -0.00102390      -0.00026160
Cu      -0.00997627       1.47703145      18.36199976        2       0.00217220       0.00208413       0.00166745
Cu       2.54111715       1.47760037      18.36452331        2       0.00274418       0.00467599      -0.00259101
Cu       5.09631008       1.48056637      18.37044493        2      -0.00172275      -0.00291234       0.00209851
Cu       7.64465877       1.47928241      18.37095919        2       0.00343545       0.00140750       0.00169841
Cu       1.26340401       3.68884839      18.36464647        2       0.00792340      -0.00297007       0.00630697
Cu       3.81938757       3.68913060      18.36932196        2      -0.00660791      -0.00286807       0.00037435
Cu       6.37009306       3.68811789      18.35853052        2       0.00224125      -0.00362407      -0.00002879
Cu       8.92266975       3.68760946      18.36502670        2       0.00333118      -0.00429570       0.00279214
Cu       2.54236888       5.90013633      18.36789858        2      -0.00107761       0.00032447      -0.00099591
Cu       5.09547474       5.89807598      18.36974055        2      -0.00116135       0.00566847      -0.00013974
Cu       7.64489395       5.90040748      18.36512979        2       0.00115598       0.00256421       0.00117942
Cu      10.19608328       5.89954645      18.36570953        2       0.01046473       0.00252855       0.00859155
Cu       3.81883020       8.11120384      18.36408015        2       0.00532394      -0.00265603       0.00367946
Cu       6.37230507       8.10975973      18.36214440        2      -0.00514901       0.00194058      -0.00334993
Cu       8.92328827       8.11106107      18.36416998        2      -0.00229987       0.00318341       0.00408316
Cu      11.47566517       8.11418790      18.36749972        2       0.00509252      -0.00660364       0.00421081
Cu       0.00000000       0.00000000      20.42117236        1      -0.00072143      -0.00245499       0.01642309
Cu       2.55265548       0.00000000      20.42117236        1       0.00043725      -0.00255557       0.01914462
Cu       5.10531096       0.00000000      20.42117236        1      -0.03039610      -0.06712486       0.00960467
Cu       7.65796644       0.00000000      20.42117236        1       0.02599400      -0.05096421       0.02217902
Cu       1.27632774       2.21066449      20.42117236        1      -0.00115911       0.00447580       0.02107813
Cu       3.82898322       2.21066449      20.42117236        1      -0.20633870      -0.06954505      -0.07595166
Cu       6.38163870       2.21066449      20.42117236        1       0.10074602      -0.25400591      -0.34210896
Cu       8.93429418       2.21066449      20.42117236        1       0.10387495      -0.02185453      -0.03655543
Cu       2.55265548       4.42132899      20.42117236        1      -0.02237018       0.00508024       0.02090820
Cu       5.10531096       4.42132899      20.42117236        1      -0.19203185       0.27368197      -0.24480163
Cu       7.65796644       4.42132899      20.42117236        1       0.23907053       0.19943050      -0.20922230
Cu      10.21062192       4.42132899      20.42117236        1      -0.00140901      -0.00399053       0.02285633
Cu       3.82898322       6.63199348      20.42117236        1      -0.00354673       0.00995839       0.02905930
Cu       6.38163870       6.63199348      20.42117236        1       0.00389266       0.03596620       0.01460211
Cu       8.93429418       6.63199348      20.42117236        1      -0.00297154      -0.00496535       0.02722451
Cu      11.48694966       6.63199348      20.42117236        1       0.00275093       0.00422657       0.01988067
O        6.05111242       3.21369502      22.42117236        0      -0.03082043      -0.01444437       0.64760238
C        6.51446441       3.18535638      23.51419361        0       0.01464364      -0.01143197       0.01133733
O        6.95779471       3.14515421      24.59902263        0      -0.01645956       0.00742906       0.00396080
