99
Lattice="10.210621920333747 0.0 0.0 5.105310960166873 8.842657971447272 0.0 0.0 0.0 30.421172358872745" Properties=species:S:1:pos:R:3:tags:I:1:forces:R:3 energy=-439.8284912109375 free_energy=-439.8284912109375 stress="0.018347449600696564 3.1134113669395447e-06 3.8836151361465454e-07 3.1134113669395447e-06 0.018248066306114197 -4.715984687209129e-05 3.8836151361465454e-07 -4.715984687209129e-05 0.0110210832208395" pbc="T T F"
Cu       1.27745890       0.76097294      10.18979732        6      -0.00117707       0.00177583       0.00377876
Cu       3.82971975       0.76062001      10.19229753        6       0.00020252       0.00153786      -0.00002512
Cu       6.38296764       0.75946563      10.19293990        6      -0.00171529       0.00414444      -0.00111220
Cu       8.93564683       0.76033772      10.19040499        6      -0.00106070       0.00223643       0.00270345
Cu       2.55322543       2.97260679      10.19207660        6       0.00094461      -0.00157434       0.00365043
Cu       5.10617985       2.97161539      10.19435301        6      -0.00022264      -0.00103288      -0.00094953
Cu       7.65876878       2.97232596      10.19296825        6       0.00108540      -0.00231912       0.00011770
Cu      10.21149622       2.97267087      10.19122930        6       0.00050261      -0.00168122       0.00355692
Cu       3.83022773       5.18176596      10.19383637        6      -0.00150195      -0.00010289      -0.00034718
Cu       6.38304801       5.18167507      10.19304742        6      -0.00176732       0.00048184       0.00022039
Cu       8.93596234       5.18268725      10.19256121        6      -0.00227338      -0.00023786       0.00081851
Cu      11.48822038       5.18259040      10.19415090        6      -0.00075985       0.00008131      -0.00103327
Cu       5.10674432       7.39149957      10.19215960        6      -0.00096746       0.00406339       0.00041007
Cu       7.65838369       7.39251369      10.19169385        6       0.00237992       0.00222126       0.00084374
Cu      10.21161940       7.39187819      10.19409714        6      -0.00035735       0.00442329      -0.00151078
Cu      12.76519738       7.39177955      10.19409034        6      -0.00306858       0.00295300      -0.00210568
Cu       0.00054603       1.49522623      12.25129249        5       0.00077074      -0.00028646       0.00322584
Cu       2.55264236       1.49654803      12.25232068        5      -0.00047936      -0.00085102      -0.00036866
Cu       5.10588621       1.49449743      12.25395677        5      -0.00190620      -0.00035842      -0.00075730
Cu       7.65903845       1.49491026      12.25266347        5      -0.00152427      -0.00191722       0.00106539
Cu       1.27659671       3.70717279      12.25491871        5       0.00094175      -0.00230000      -0.00200941
Cu       3.82930992       3.70626287      12.25564364        5      -0.00195882      -0.00211915      -0.00332645
Cu       6.38294030       3.70529591      12.25589051        5      -0.00426863       0.00079915      -0.00271957
Cu       8.93587456       3.70650156      12.25435549        5      -0.00340460      -0.00125408      -0.00163052
Cu       2.55280263       5.91662265      12.25554962        5       0.00024638      -0.00105233      -0.00413579
Cu       5.10558937       5.91562118      12.25397338        5      -0.00023978       0.00085833       0.00126970
Cu       7.65846075       5.91621537      12.25297040        5      -0.00180272      -0.00044692       0.00245612
Cu      10.21095709       5.91664817      12.25590474        5      -0.00124594      -0.00033300      -0.00567251
Cu       3.83061428       8.12732519      12.25363989        5      -0.00195122      -0.00156081       0.00072963
Cu       6.38238239       8.12799031      12.25212906        5      -0.00246388      -0.00256805       0.00176368
Cu       8.93441998       8.12755383      12.25417214        5      -0.00111167      -0.00162096      -0.00375744
Cu      11.48823821       8.12670801      12.25543650        5      -0.00247256      -0.00114668      -0.00522287
Cu      -0.00978823       0.00402828      14.29258352        4      -0.00016529      -0.00163862      -0.00039054
Cu       2.54249940       0.00577858      14.28998869        4       0.00050358      -0.00194535       0.00117201
Cu       5.09681503       0.00063085      14.29346538        4      -0.00064478      -0.00050930       0.00075207
Cu       7.64787249       0.00226175      14.29302105        4       0.00190482       0.00006935       0.00145994
Cu       1.26637638       2.21705575      14.29081029        4       0.00055445      -0.00250649       0.00123003
Cu       3.82023123       2.21397592      14.29214758        4      -0.00059760      -0.00210768       0.00054916
Cu       6.37180836       2.21184829      14.29312315        4       0.00067142       0.00020008       0.00063962
Cu       8.92442982       2.21382951      14.29061097        4      -0.00007224      -0.00184544       0.00109591
Cu       2.54474953       4.42749670      14.29558765        4      -0.00085946      -0.00303983      -0.00001783
Cu       5.09480546       4.42507077      14.29549988        4       0.00053399      -0.00176842      -0.00042363
Cu       7.64759615       4.42463817      14.29430050        4      -0.00000803      -0.00160847      -0.00030822
Cu      10.20053902       4.42546698      14.29520643        4       0.00001403      -0.00205226      -0.00005685
Cu       3.81802336       6.63480276      14.29358002        4       0.00298939       0.00211752       0.00194444
Cu       6.37162229       6.63556803      14.29095223        4      -0.00010593      -0.00143877       0.00039527
Cu       8.92346318       6.63475715      14.29239387        4       0.00042406      -0.00069693       0.00143329
Cu      11.47670668       6.63314790      14.29576292        4       0.00072199       0.00065087       0.00035167
Cu       1.26430119       0.73550961      16.32124405        3       0.00008275      -0.00038368       0.00099775
Cu       3.81721178       0.73475093      16.32422285        3      -0.00006501      -0.00036878       0.00104907
Cu       6.36844941       0.73500940      16.32543672        3       0.00037833      -0.00177531       0.00112690
Cu       8.91958290       0.73627860      16.32480585        3       0.00112434      -0.00175869       0.00011411
Cu       2.53960212       2.94562828      16.32497497        3       0.00021370      -0.00033080      -0.00004695
Cu       5.09101675       2.94469923      16.32459162        3      -0.00026479      -0.00146441       0.00041552
Cu       7.64509598       2.94508018      16.32366011        3       0.00111507      -0.00173063       0.00059570
Cu      10.19710837       2.94497361      16.32228504        3       0.00242572       0.00050871       0.00247321
Cu       3.81352991       5.15829616      16.32830359        3       0.00222016      -0.00153137       0.00004684
Cu       6.36593439       5.15898475      16.32423730        3       0.00208336      -0.00094389       0.00080621
Cu       8.91946013       5.15651407      16.32520857        3       0.00119548      -0.00012025       0.00111089
Cu      11.47158144       5.15760645      16.32841204        3       0.00144207      -0.00236592      -0.00086254
Cu       5.09151746       7.36915546      16.32171197        3       0.00052982      -0.00224097       0.00408014
Cu       7.64441473       7.36920287      16.32038799        3       0.00116638      -0.00165710       0.00397136
Cu      10.19624785       7.36624108      16.32568002        3       0.00077942      -0.00051959       0.00084480
Cu      12.74844396       7.36846839      16.32614556        3       0.00146048      -0.00180661       0.00045279
Cu      -0.00883536       1.47771225      18.36260516        2       0.00227897      -0.00118995      -0.00484909
Cu       2.54296541       1.47888732      18.36418436        2      -0.00210542      -0.00433952      -0.00293953
Cu       5.09718673       1.48067788      18.37063356        2       0.00266358      -0.00389163      -0.00212447
Cu       7.64585930       1.48036348      18.37140782        2       0.00080278      -0.00579014      -0.00123200
Cu       1.26590353       3.68857813      18.36544246        2       0.00067444      -0.00089123       0.00033908
Cu       3.81912429       3.68890536      18.36872853        2       0.00204412       0.00167652      -0.00087467
Cu       6.37154365       3.68794909      18.35863241        2      -0.00367987      -0.00098958       0.00200490
Cu       8.92443740       3.68722967      18.36544029        2       0.00366210       0.00166385      -0.00149303
Cu       2.54277298       5.90030824      18.36745335        2       0.00398060      -0.00051903       0.00116107
Cu       5.09599101       5.89963026      18.36885143        2      -0.00033157      -0.00279157       0.00108276
Cu       7.64559123       5.90065741      18.36520956        2       0.00404589       0.00219044      -0.00294461
Cu      10.19901303       5.90028574      18.36703094        2      -0.00108723      -0.00249658      -0.00284549
Cu       3.81998931       8.11090246      18.36465814        2       0.00272850       0.00300431      -0.00025476
Cu       6.37197294       8.11002323      18.36209788        2       0.00126055       0.00407188      -0.00403684
Cu       8.92422013       8.11187257      18.36467885        2      -0.00343113       0.00010814       0.00006093
Cu      11.47721772       8.11363277      18.36816309        2       0.00416208       0.00144253       0.00051806
Cu       0.00000000       0.00000000      20.42117236        1       0.00035665      -0.00247999       0.01834599
Cu       2.55265548       0.00000000      20.42117236        1      -0.00019186      -0.00226568       0.01858922
Cu       5.10531096       0.00000000      20.42117236        1      -0.03047189      -0.06974605       0.00987320
Cu       7.65796644       0.00000000      20.42117236        1       0.02822976      -0.05409090       0.02098903
Cu       1.27632774       2.21066449      20.42117236        1       0.00009732       0.00466690       0.02328255
Cu       3.82898322       2.21066449      20.42117236        1      -0.20498386      -0.06339920      -0.07232224
Cu       6.38163870       2.21066449      20.42117236        1       0.09861658      -0.25328043      -0.35409304
Cu       8.93429418       2.21066449      20.42117236        1       0.11009375      -0.02210205      -0.03590415
Cu       2.55265548       4.42132899      20.42117236        1      -0.01716301       0.00572985       0.02529898
Cu       5.10531096       4.42132899      20.42117236        1      -0.19188690       0.27511182      -0.24420586
Cu       7.65796644       4.42132899      20.42117236        1       0.23406658       0.20593655      -0.20798969
Cu      10.21062192       4.42132899      20.42117236        1      -0.00073463      -0.00489436       0.02533500
Cu       3.82898322       6.63199348      20.42117236        1      -0.00230434       0.00723908       0.03079877
Cu       6.38163870       6.63199348      20.42117236        1       0.00328580       0.03162340       0.01686606
Cu       8.93429418       6.63199348      20.42117236        1      -0.00456540      -0.00316504       0.02760147
Cu      11.48694966       6.63199348      20.42117236        1       0.00570154       0.00435678       0.02495354
O        6.07449145       3.17753748      22.42117236        0      -0.02490855      -0.00967372       0.66582185
C        6.51788045       3.17080531      23.52268610        0       0.00118158      -0.00858953       0.00689975
O        6.93824463       3.15482841      24.61727156        0      -0.01121559       0.00356717       0.00135764
