99
Lattice="10.210621920333747 0.0 0.0 5.105310960166873 8.842657971447272 0.0 0.0 0.0 30.421172358872745" Properties=species:S:1:pos:R:3:tags:I:1:forces:R:3 energy=-439.4364013671875 free_energy=-439.4364013671875 stress="0.019695980474352837 4.1690655052661896e-06 -1.526903361082077e-06 4.1690655052661896e-06 0.019771914929151535 -3.437791019678116e-05 -1.526903361082077e-06 -3.437791019678116e-05 0.014562400057911873" pbc="T T F"
Cu       1.26797534       0.73957408      10.12757298        6       0.00538658       0.00378110      -0.02436128
Cu       3.82118670       0.73980260      10.12560736        6       0.00307774       0.00341650      -0.01567555
Cu       6.37420302       0.73842394      10.12561608        6       0.00076753       0.01062149      -0.01533996
Cu       8.92716926       0.73909966      10.12832416        6      -0.00324853       0.00470863      -0.02597501
Cu       2.54439462       2.95034134      10.12970164        6       0.00301257       0.00453259      -0.02907743
Cu       5.09642766       2.95111613      10.13032366        6       0.00877070      -0.00160609      -0.02774766
Cu       7.65010255       2.95204131      10.12978854        6      -0.00028174      -0.00422810      -0.02706302
Cu      10.20182335       2.95031072      10.12885984        6       0.00705963       0.00639078      -0.03022394
Cu       3.82199508       5.16251245      10.13025286        6       0.00084337      -0.00641597      -0.03681953
Cu       6.37398509       5.16301489      10.13058616        6       0.00366456      -0.00712129      -0.03846609
Cu       8.92730205       5.16383351      10.12789548        6      -0.00179515      -0.00805940      -0.03551888
Cu      11.47938221       5.16406137      10.12961173        6       0.00507687      -0.01306403      -0.04037380
Cu       5.09771152       7.37030108      10.12881034        6       0.00133832       0.01198547      -0.03217378
Cu       7.64855634       7.37162544      10.12846228        6       0.00891402       0.01036630      -0.03328029
Cu      10.20235655       7.37074408      10.12972676        6       0.00316394       0.01601438      -0.04167434
Cu      12.75572569       7.37025708      10.12946056        6       0.00382148       0.01387402      -0.03825338
Cu       0.00159101       1.48053129      12.17969288        5      -0.00455844      -0.00349424       0.06170215
Cu       2.55436104       1.48008296      12.18112397        5      -0.00402659      -0.00223706       0.04801993
Cu       5.10676938       1.48010973      12.18280568        5      -0.00366534      -0.00030002       0.03538799
Cu       7.65939815       1.48021744      12.18243921        5      -0.00656982      -0.00005184       0.03917240
Cu       1.27823902       3.69296018      12.17926293        5      -0.00456753      -0.00578798       0.06761102
Cu       3.83079179       3.69273990      12.18066992        5      -0.00347995      -0.00589866       0.06770605
Cu       6.38275997       3.69281171      12.18099653        5      -0.00486479      -0.00631036       0.06390423
Cu       8.93593846       3.69374506      12.17900343        5      -0.00667565      -0.00716209       0.06818029
Cu       2.55461407       5.90302682      12.17737958        5      -0.00270424      -0.00758039       0.08564745
Cu       5.10682370       5.90250628      12.17894967        5      -0.00418556      -0.00514359       0.08368119
Cu       7.65948358       5.90331242      12.17751642        5      -0.00587181      -0.00619913       0.08148702
Cu      10.21241992       5.90342261      12.17534690        5      -0.00621912      -0.00807561       0.09251694
Cu       3.83047412       8.11205277      12.17887980        5      -0.00261282      -0.00195135       0.06786364
Cu       6.38330076       8.11276392      12.17951868        5      -0.00554794      -0.00226564       0.06423413
Cu       8.93636760       8.11236791      12.17852029        5      -0.00728714       0.00120381       0.06228390
Cu      11.48898212       8.11208866      12.17913323        5      -0.00573836       0.00202841       0.05956634
Cu      -0.00170066      -0.00523711      14.22499657        4       0.00670610       0.00821945       0.05904079
Cu       2.55276477      -0.00388304      14.22466502        4      -0.00308169       0.00388291       0.05586096
Cu       5.10466339      -0.00255115      14.22405033        4      -0.00010231      -0.00785955       0.05581103
Cu       7.65653059      -0.00295231      14.22399589        4       0.00612055      -0.00587458       0.06083604
Cu       1.27600841       2.20870361      14.22339118        4      -0.00054148      -0.00455175       0.06493956
Cu       3.82821350       2.20734719      14.22488049        4      -0.00767082      -0.00012678       0.03575105
Cu       6.38021422       2.20793549      14.22641896        4       0.00188895      -0.00256142       0.01520597
Cu       8.93251226       2.20817583      14.22334807        4       0.01664985      -0.00293373       0.05381436
Cu       2.55309146       4.41917960      14.22708600        4      -0.00495322       0.00249945       0.02838277
Cu       5.10469172       4.41867782      14.23041850        4      -0.00285386      -0.00200311       0.00211364
Cu       7.65598457       4.41883261      14.22709436        4       0.00755682       0.00340074       0.01487705
Cu      10.20927037       4.41893550      14.22475453        4       0.00631511       0.00757674       0.04522984
Cu       3.82868439       6.62801980      14.22659145        4      -0.00349847       0.00705026       0.03403203
Cu       6.38029186       6.62919619      14.22627511        4       0.00280634       0.00643330       0.01924985
Cu       8.93271545       6.62919840      14.22308964        4       0.00904598       0.00089727       0.05306648
Cu      11.48606546       6.62904351      14.22200018        4       0.00102432      -0.00051463       0.06528724
Cu       1.27614692       0.73071115      16.27251499        3      -0.00415843       0.01016913       0.08266993
Cu       3.82923445       0.73174298      16.27519710        3      -0.04033959      -0.01563066       0.03734935
Cu       6.38053958       0.73245457      16.27415197        3       0.01780715      -0.01800251       0.05218744
Cu       8.93347479       0.72973964      16.27302561        3       0.02369224       0.00205301       0.06510916
Cu       2.55259273       2.94546611      16.27461423        3      -0.03906327      -0.03011144       0.05360545
Cu       5.10115201       2.94033093      16.26785017        3       0.00644524       0.00861085       0.07461026
Cu       7.65855013       2.94161152      16.26836400        3       0.02759055      -0.00967026       0.07297847
Cu      10.21067196       2.94408425      16.27203149        3       0.01474049      -0.01687178       0.06534467
Cu       3.82926152       5.15600141      16.27813002        3      -0.02325908      -0.00342451       0.03837086
Cu       6.38113814       5.15852993      16.27052634        3       0.00879280      -0.01529014       0.05848215
Cu       8.93348211       5.15425327      16.27542670        3       0.02769236       0.00042266       0.03845198
Cu      11.48672143       5.15506495      16.27541714        3      -0.00889091      -0.00126120       0.05338648
Cu       5.10449186       7.35873097      16.27953930        3       0.00659378       0.07567500       0.02083474
Cu       7.65848532       7.36303607      16.27549425        3       0.00477614       0.04840660       0.02712596
Cu      10.21090397       7.36484843      16.27367868        3      -0.00134820      -0.00045065       0.06252944
Cu      12.76181246       7.36442959      16.27566997        3       0.00142571       0.01206510       0.05061474
Cu       0.00053708       1.47465869      18.35265507        2       0.00824165      -0.00793970      -0.11365351
Cu       2.55237817       1.47596481      18.35742143        2      -0.01884263      -0.00432931      -0.12649891
Cu       5.09628407       1.46533301      18.33144078        2       0.07819574       0.07100096       0.08534250
Cu       7.66522603       1.46964652      18.34304934        2      -0.05317225       0.02526761      -0.03013745
Cu       1.27632801       3.68917879      18.35595642        2      -0.00755768      -0.01940159      -0.10656147
Cu       3.81596836       3.68185348      18.33451301        2       0.14615259       0.05032176       0.05834270
Cu       6.38834933       3.68170691      18.31414037        2      -0.08671314       0.03969021       0.10186355
Cu       8.94584006       3.68355646      18.34179630        2      -0.06625580       0.01636251      -0.02855079
Cu       2.54775348       5.90123023      18.34969245        2       0.03775125      -0.02961913      -0.04585215
Cu       5.10384417       5.90618235      18.33678217        2       0.02338108      -0.16783722       0.11249606
Cu       7.66583471       5.90778680      18.33265674        2      -0.04860955      -0.10400908       0.08974396
Cu      10.21497063       5.89879709      18.35178122        2      -0.02821186      -0.00756444      -0.08762462
Cu       3.83138672       8.10420502      18.35478487        2      -0.00584349       0.01895352      -0.11230378
Cu       6.38397658       8.10573004      18.35533073        2      -0.01295251       0.01969472      -0.12558536
Cu       8.93339968       8.10680933      18.35269993        2       0.00386855       0.00565245      -0.09646344
Cu      11.48831240       8.10604866      18.35205398        2      -0.00736454       0.02418819      -0.08620143
Cu       0.00000000       0.00000000      20.42117236        1       0.01701191      -0.00561999      -0.01984125
Cu       2.55265548       0.00000000      20.42117236        1       0.00748885      -0.00262331      -0.00264756
Cu       5.10531096       0.00000000      20.42117236        1      -0.01010080      -0.03001954      -0.06753144
Cu       7.65796644       0.00000000      20.42117236        1       0.01178492      -0.04949693      -0.05565187
Cu       1.27632774       2.21066449      20.42117236        1       0.00818523      -0.00493688      -0.02881668
Cu       3.82898322       2.21066449      20.42117236        1      -0.17866564      -0.19981280      -0.20969371
Cu       6.38163870       2.21066449      20.42117236        1       0.11481192      -0.12665170      -0.18286228
Cu       8.93429418       2.21066449      20.42117236        1       0.10343976      -0.04564413      -0.14873765
Cu       2.55265548       4.42132899      20.42117236        1      -0.17087728       0.01704868      -0.14412552
Cu       5.10531096       4.42132899      20.42117236        1      -0.15203252       0.22580227      -0.46335128
Cu       7.65796644       4.42132899      20.42117236        1       0.14685981       0.04349904      -0.17425770
Cu      10.21062192       4.42132899      20.42117236        1       0.03645726       0.01638685      -0.06252704
Cu       3.82898322       6.63199348      20.42117236        1      -0.05597455       0.11548405      -0.10435226
Cu       6.38163870       6.63199348      20.42117236        1       0.06173392       0.14632013      -0.16295962
Cu       8.93429418       6.63199348      20.42117236        1       0.00322565      -0.00492526      -0.05174894
Cu      11.48694966       6.63199348      20.42117236        1       0.00214362       0.00511512      -0.02404431
O        5.19750616       4.00686541      22.42117236        0      -0.95792955       0.38152158      -0.00262020
C        6.33517942       3.53401748      22.42754337        0       0.36660722      -0.16180947       0.19777176
O        7.16841852       3.19926449      23.22178027        0       0.65485352      -0.29625401       0.14555673
