99
Lattice="10.210621920333747 0.0 0.0 5.105310960166873 8.842657971447272 0.0 0.0 0.0 30.421172358872745" Properties=species:S:1:pos:R:3:tags:I:1:forces:R:3 energy=-439.92578125 free_energy=-439.92578125 stress="0.019216228276491165 1.659151166677475e-06 3.366731107234955e-07 1.659151166677475e-06 0.019143935292959213 -5.334010347723961e-05 3.366731107234955e-07 -5.334010347723961e-05 0.010962771251797676" pbc="T T F"
Cu       1.27996110       0.75481164      10.20483261        6      -0.00501562       0.00021003      -0.01767965
Cu       3.83220895       0.75608945      10.19991107        6      -0.00584384      -0.00565517      -0.00895132
Cu       6.38606773       0.75567311      10.19809890        6      -0.00814094       0.00574375      -0.00516971
Cu       8.93941573       0.75768046      10.20224251        6      -0.01276468      -0.00499405      -0.00831286
Cu       2.55564503       2.96955095      10.20222592        6      -0.00626538      -0.01274560      -0.01990618
Cu       5.10654696       2.97267986      10.19889883        6       0.00332640      -0.02123083      -0.01197160
Cu       7.65895681       2.97227769      10.20201786        6       0.00314547      -0.02067491      -0.01190861
Cu      10.21336269       2.96833239      10.20332450        6      -0.00100530      -0.00677487      -0.01571511
Cu       3.83300972       5.18165378      10.19746868        6      -0.01337974      -0.01742103      -0.01127111
Cu       6.38395534       5.18139824      10.19737885        6      -0.00118272      -0.01748732      -0.00613881
Cu       8.93827463       5.17981428      10.19844536        6      -0.00878260      -0.01600481      -0.00359387
Cu      11.49101212       5.18117610      10.19828201        6      -0.00873740      -0.02221668      -0.00939470
Cu       5.10706326       7.38627432      10.19975310        6      -0.00392059       0.01307327      -0.00957011
Cu       7.65780210       7.38537274      10.20140675        6       0.00623102       0.01190259      -0.01012146
Cu      10.21279858       7.38506507      10.20075132        6      -0.00381039       0.01637787      -0.01891756
Cu      12.76653518       7.38796703      10.19779158        6      -0.00318565       0.00837459      -0.01094087
Cu      -0.00068074       1.48265870      12.26310320        5      -0.00163616       0.01131197      -0.02537793
Cu       2.55286469       1.48388246      12.26030223        5       0.00477728       0.00222033      -0.01911335
Cu       5.10515238       1.48346502      12.25570936        5       0.00363946       0.00909589      -0.00967603
Cu       7.65673123       1.48275120      12.26125666        5       0.00140053       0.01176534      -0.02102354
Cu       1.27848679       3.69264036      12.25807981        5      -0.00613156       0.01832780      -0.00889570
Cu       3.82822273       3.69324687      12.25509868        5       0.00648439       0.01583700       0.00313366
Cu       6.38090955       3.69238505      12.25657716        5       0.00299183       0.01634869       0.00081260
Cu       8.93408311       3.69150585      12.25901193        5      -0.00590037       0.01660440      -0.00838795
Cu       2.55160226       5.90768235      12.25348353        5       0.00451120      -0.00381144       0.00493891
Cu       5.10400734       5.90696129      12.25429220        5       0.00790959      -0.00426838       0.01686064
Cu       7.65631923       5.90562361      12.25588767        5       0.00212385      -0.00337436       0.01008349
Cu      10.21068930       5.90517059      12.25665485        5      -0.00435357      -0.00252803      -0.00867854
Cu       3.82874723       8.11467461      12.25909532        5      -0.00274137       0.01219024      -0.00891521
Cu       6.37927004       8.11487876      12.25866340        5       0.00581794       0.00133793      -0.00238871
Cu       8.93465683       8.11366983      12.25727627        5      -0.00335248       0.00778509      -0.01384555
Cu      11.48704588       8.11560209      12.25727768        5      -0.00281434       0.00913636      -0.01512710
Cu      -0.00589542      -0.00053996      14.29457584        4      -0.00271905      -0.00893912       0.00317063
Cu       2.54962190      -0.00546629      14.28927881        4      -0.00591528       0.01215103       0.04819364
Cu       5.09674522       0.00003690      14.29229635        4      -0.00245171      -0.00393236       0.00113111
Cu       7.64622588      -0.00206494      14.29414778        4       0.01986640      -0.00385765       0.00233278
Cu       1.27303778       2.21058393      14.29275012        4      -0.00019322      -0.00142975       0.00276222
Cu       3.82767637       2.21082814      14.29454838        4      -0.00741818      -0.00292553       0.00054536
Cu       6.37185690       2.21012453      14.29872745        4       0.01745889       0.00245808      -0.01746629
Cu       8.92621936       2.20816583      14.29943330        4      -0.00475343       0.00358073      -0.01817636
Cu       2.55122065       4.42542566      14.29076844        4      -0.00571036      -0.01045316       0.00311413
Cu       5.10257312       4.42070284      14.29221043        4      -0.00365683      -0.00338863       0.00004817
Cu       7.64960396       4.42340317      14.29694004        4       0.00272352      -0.01651776      -0.01415735
Cu      10.20066188       4.42044487      14.29009824        4       0.01495467      -0.00476602       0.00474290
Cu       3.82273704       6.62758461      14.29340429        4       0.01254329       0.02067055       0.00664886
Cu       6.37688526       6.62906662      14.30090708        4      -0.00846965       0.01153433      -0.02008394
Cu       8.92979638       6.62797654      14.29715266        4      -0.00771332       0.00664467      -0.00923202
Cu      11.47784585       6.62932392      14.29187316        4       0.00775647       0.00340584      -0.00129336
Cu       1.26706749       0.73305214      16.31848318        3       0.01117927      -0.00022422       0.05379366
Cu       3.81923031       0.73401740      16.32739614        3      -0.01551365      -0.02261042      -0.01945923
Cu       6.37272668       0.72791871      16.32100409        3       0.00073863      -0.00280230       0.01897962
Cu       8.92718662       0.73290568      16.31975602        3      -0.00931132      -0.01725960       0.04055998
Cu       2.54339657       2.94337463      16.32569946        3      -0.00364449      -0.00269710      -0.00519634
Cu       5.09516209       2.93910989      16.32509145        3      -0.00179230       0.00333936      -0.00176486
Cu       7.64911856       2.93989211      16.32747127        3       0.00005008      -0.00015260      -0.01185358
Cu      10.20168828       2.94495653      16.31609255        3       0.01282628       0.00003965       0.04047660
Cu       3.82299603       5.15302536      16.32309170        3      -0.00321691      -0.00391630      -0.00036225
Cu       6.37414321       5.15208949      16.32431610        3      -0.00396136      -0.00395103      -0.00058745
Cu       8.92460909       5.15534826      16.31997071        3       0.01349653      -0.00663848       0.01940903
Cu      11.48066510       5.15404328      16.31649137        3      -0.01079634      -0.00377373       0.03294830
Cu       5.09787593       7.36442691      16.33258991        3      -0.00867968       0.01289473      -0.05358309
Cu       7.64737846       7.36425661      16.33052114        3       0.02183001       0.03773584      -0.04456415
Cu      10.20399736       7.36257841      16.31941047        3      -0.00405895       0.01582131       0.03834975
Cu      12.75641617       7.36076029      16.32093063        3      -0.00555440       0.01200663       0.01289211
Cu      -0.01559675       1.47579595      18.36280605        2       0.03703053      -0.01399633      -0.01899350
Cu       2.54498373       1.47809078      18.36882249        2      -0.04578689      -0.02520824      -0.01664836
Cu       5.09087461       1.47327447      18.36012327        2       0.02283058      -0.00265846       0.05500370
Cu       7.64344541       1.47571666      18.36381950        2       0.01942135      -0.03080300       0.01786284
Cu       1.26393345       3.68710859      18.36104619        2      -0.00681344      -0.00909615       0.02326353
Cu       3.81659706       3.68384032      18.36344681        2       0.02727683       0.02710086       0.04724946
Cu       6.37092694       3.68009693      18.35647739        2      -0.02937427       0.02638187       0.02688644
Cu       8.92060035       3.68508423      18.35762212        2       0.03211768       0.00371883       0.03425753
Cu       2.54424056       5.89356837      18.36264484        2      -0.01209040       0.00344214       0.02589711
Cu       5.09440990       5.89214519      18.36171376        2      -0.00608062      -0.04883656       0.10628954
Cu       7.64183559       5.89664519      18.35583205        2       0.02583735      -0.01437114       0.08343679
Cu      10.19603893       5.89463942      18.36020423        2       0.02056959       0.00457202       0.02233440
Cu       3.81616439       8.10138658      18.36465187        2       0.00626326       0.03565239       0.00604183
Cu       6.36816251       8.09853382      18.36826823        2       0.01444832       0.07017504      -0.01250414
Cu       8.92422665       8.10551933      18.36583071        2       0.00040824       0.00562405       0.00542832
Cu      11.47582261       8.10967118      18.36704281        2       0.00638940      -0.01491081      -0.00856026
Cu       0.00000000       0.00000000      20.42117236        1      -0.00470856      -0.00208621       0.01713105
Cu       2.55265548       0.00000000      20.42117236        1      -0.00457329      -0.00699984       0.02582951
Cu       5.10531096       0.00000000      20.42117236        1      -0.00788325      -0.02506340       0.01831403
Cu       7.65796644       0.00000000      20.42117236        1       0.00219432      -0.01657150       0.02009316
Cu       1.27632774       2.21066449      20.42117236        1      -0.01033365       0.00054392       0.01500904
Cu       3.82898322       2.21066449      20.42117236        1      -0.20067436      -0.17887458      -0.14234620
Cu       6.38163870       2.21066449      20.42117236        1       0.16226865      -0.32788065      -0.33807909
Cu       8.93429418       2.21066449      20.42117236        1       0.01056048      -0.00321844      -0.02320055
Cu       2.55265548       4.42132899      20.42117236        1      -0.12708317       0.01812273      -0.03467138
Cu       5.10531096       4.42132899      20.42117236        1      -0.14608403       0.30456284      -0.46567270
Cu       7.65796644       4.42132899      20.42117236        1       0.26472688       0.10094511      -0.21146090
Cu      10.21062192       4.42132899      20.42117236        1      -0.00552444      -0.00599994       0.00316930
Cu       3.82898322       6.63199348      20.42117236        1      -0.02787625       0.03788982      -0.00376698
Cu       6.38163870       6.63199348      20.42117236        1       0.02264686       0.07586014      -0.03206559
Cu       8.93429418       6.63199348      20.42117236        1      -0.00596007      -0.01659624       0.01432702
Cu      11.48694966       6.63199348      20.42117236        1      -0.00097046      -0.00189284       0.00682343
O        5.52805865       3.65336424      22.42117236        0      -0.10047468       0.07524474       0.72877693
C        6.40650091       3.38218255      23.17777181        0       0.19596906      -0.21169393       0.23189256
O        7.19817402       3.06791091      23.98443459        0      -0.09195904       0.11642638      -0.05450267
