99
Lattice="10.210621920333747 0.0 0.0 5.105310960166873 8.842657971447272 0.0 0.0 0.0 30.421172358872745" Properties=species:S:1:pos:R:3:tags:I:1:forces:R:3 energy=-439.85675048828125 free_energy=-439.85675048828125 stress="0.018387053161859512 2.969987690448761e-06 4.745088517665863e-07 2.969987690448761e-06 0.018281716853380203 -4.78341244161129e-05 4.745088517665863e-07 -4.78341244161129e-05 0.010942979715764523" pbc="T T F"
Cu       1.26129606       0.76139025      10.19151046        6       0.00085628      -0.00706815       0.00262354
Cu       3.81509823       0.76006981      10.19144538        6       0.00075943      -0.00281221      -0.00328134
Cu       6.36687357       0.76132062      10.19325310        6       0.00436702      -0.00177654      -0.00549137
Cu       8.91878955       0.76122150      10.19513482        6       0.00336526      -0.00354324      -0.00430360
Cu       2.53897328       2.96947621      10.18815152        6      -0.00166855       0.00327877       0.00113103
Cu       5.09125059       2.97054267      10.18786091        6       0.00268037       0.00412458       0.00309334
Cu       7.64457960       2.97030721      10.19002356        6      -0.00271733       0.00326688       0.00489282
Cu      10.19598165       2.96994584      10.19034848        6      -0.00029283       0.00246136       0.00246824
Cu       3.81333444       5.18309274      10.19372040        6       0.00816747      -0.00069209      -0.00775183
Cu       6.36694728       5.18265629      10.19478946        6       0.00304203      -0.00010975      -0.00464053
Cu       8.92015970       5.18214006      10.19486548        6      -0.00097828      -0.00281493      -0.00486669
Cu      11.47257469       5.18181248      10.19327801        6       0.00158131      -0.00049600      -0.00713334
Cu       5.09142955       7.39433832      10.19530163        6      -0.00133711      -0.00455212      -0.00361544
Cu       7.64492133       7.39320166      10.19286809        6      -0.00314946      -0.00521559       0.00106437
Cu      10.19723826       7.39280565      10.19040300        6      -0.00133521      -0.00295695       0.00171870
Cu      12.74819126       7.39402207      10.19322435        6       0.00557743      -0.00399009      -0.00232750
Cu      -0.00977616       1.48988395      12.25517639        5       0.00470379       0.00235538      -0.00153147
Cu       2.54438858       1.48694759      12.25091267        5       0.00130991       0.00588450       0.00596104
Cu       5.09685783       1.49120515      12.25182058        5       0.00175541       0.00114493       0.00513264
Cu       7.64803104       1.49205433      12.25650787        5       0.00413039      -0.00030859      -0.00138358
Cu       1.26724833       3.69972081      12.24828500        5       0.00432849       0.00301151       0.01535047
Cu       3.82089865       3.70032563      12.24823874        5       0.00000093       0.00136409       0.01458696
Cu       6.37407861       3.70126439      12.25142759        5      -0.00220922       0.00140784       0.00801427
Cu       8.92443095       3.70017360      12.25429533        5       0.00543411       0.00196223       0.00195633
Cu       2.54516791       5.91261163      12.25360123        5      -0.00007848       0.00148956       0.00353363
Cu       5.09738391       5.91365790      12.25553093        5       0.00294510      -0.00243244      -0.00084765
Cu       7.65008436       5.91144907      12.25726454        5       0.00091374       0.00192977      -0.00070532
Cu      10.20191899       5.91238673      12.25335643        5       0.00392498      -0.00028601       0.00524192
Cu       3.81935469       8.12381959      12.25591425        5       0.00409108      -0.00006365      -0.00015251
Cu       6.37570761       8.12050902      12.25521642        5      -0.00266539       0.00620460       0.00082617
Cu       8.92796577       8.12024565      12.25342673        5      -0.00020965       0.00534024       0.00625500
Cu      11.47775548       8.12407982      12.25281161        5       0.00460891       0.00062967       0.00761123
Cu      -0.00195417      -0.00458884      14.29310496        4      -0.00263367       0.00095850       0.00126567
Cu       2.55116938      -0.00770750      14.29579798        4      -0.00286095       0.00349018      -0.00356307
Cu       5.09989726      -0.00138147      14.29463359        4      -0.00100731      -0.00169541      -0.00216915
Cu       7.65271828      -0.00237809      14.29548471        4      -0.00079356       0.00036632      -0.00056777
Cu       1.27576752       2.20800283      14.28884935        4      -0.00298523      -0.00140970      -0.00092540
Cu       3.82352833       2.20539007      14.28926916        4      -0.00133145       0.00340380       0.00231508
Cu       6.37329764       2.20899318      14.29525250        4       0.00177020      -0.00128814      -0.00315714
Cu       8.92875388       2.20688297      14.29705090        4       0.00167734       0.00051705      -0.00518853
Cu       2.54762793       4.41866820      14.28889084        4      -0.00044345       0.00042419      -0.00004982
Cu       5.09899295       4.41704168      14.29097107        4      -0.00152526      -0.00072611      -0.00023641
Cu       7.65057211       4.41678122      14.29678359        4       0.00102352      -0.00007975      -0.00339439
Cu      10.20516442       4.41878436      14.29123917        4      -0.00167790      -0.00139275      -0.00132254
Cu       3.82817966       6.62887610      14.29473195        4      -0.00328157      -0.00143419      -0.00136530
Cu       6.37754304       6.62754284      14.29961770        4      -0.00199771      -0.00063451      -0.00380056
Cu       8.93024072       6.62735012      14.29827079        4      -0.00151740      -0.00053494      -0.00434645
Cu      11.48306659       6.63166391      14.29063811        4      -0.00223952      -0.00177993      -0.00071836
Cu       1.28159475       0.73442363      16.32100355        3      -0.00362772      -0.00370233       0.00021442
Cu       3.83248496       0.72990253      16.32697795        3      -0.00391899      -0.00120687      -0.00169873
Cu       6.38271674       0.72847785      16.32847747        3      -0.00158030      -0.00198772      -0.00244940
Cu       8.94093521       0.72834405      16.32768180        3      -0.00574606      -0.00082881      -0.00279153
Cu       2.56053657       2.94560930      16.32343203        3      -0.00771473      -0.00444998      -0.00057206
Cu       5.10617994       2.93779761      16.32608247        3      -0.00301389      -0.00137866      -0.00204254
Cu       7.66221969       2.93312183      16.32603287        3      -0.00326468       0.00435741      -0.00035355
Cu      10.21873986       2.94212878      16.32228868        3      -0.00443541      -0.00172511      -0.00180903
Cu       3.83606834       5.14917089      16.32641000        3      -0.01109371       0.00550655      -0.00284422
Cu       6.38363934       5.14769711      16.32783775        3      -0.00295974      -0.00122785      -0.00212160
Cu       8.93547065       5.14903991      16.32744013        3      -0.00204604      -0.00143292      -0.00309459
Cu      11.49077194       5.15259987      16.31996194        3      -0.00362832       0.00030591       0.00395590
Cu       5.10738404       7.36067663      16.33031515        3      -0.00240479       0.00132343      -0.00598809
Cu       7.65959192       7.35979327      16.32813321        3      -0.00238415       0.00304285      -0.00368576
Cu      10.21338730       7.36135005      16.32539631        3      -0.00296150      -0.00169143       0.00012312
Cu      12.76599563       7.35987711      16.32418063        3      -0.00312729       0.00016136      -0.00018066
Cu       0.00221819       1.47503395      18.36365313        2      -0.00579920      -0.00117210      -0.00499466
Cu       2.55283060       1.47670007      18.36362332        2      -0.00249285      -0.00034917       0.00419743
Cu       5.10691106       1.47525020      18.37110263        2      -0.00260684      -0.00220908      -0.00172428
Cu       7.65443883       1.47340168      18.37318806        2       0.00244142       0.00291231       0.00063660
Cu       1.27666620       3.68612089      18.36397708        2       0.00032696      -0.00042184       0.00239510
Cu       3.83043748       3.68623499      18.37150182        2      -0.00678434      -0.00539718      -0.01242171
Cu       6.38041618       3.68101129      18.36203324        2       0.00167723       0.00162375      -0.00612582
Cu       8.93428930       3.68161157      18.36411300        2       0.00005959       0.00096919       0.00361265
Cu       2.55393707       5.89485048      18.36582709        2      -0.00651696       0.00430740      -0.00564531
Cu       5.10538974       5.89399465      18.37144316        2       0.00408217       0.00374205      -0.00291683
Cu       7.65570180       5.89665283      18.36534286        2      -0.00250265       0.00032372       0.00825297
Cu      10.20917908       5.89360808      18.36449662        2       0.00210883       0.01220246       0.00171529
Cu       3.82925875       8.10691024      18.36641471        2      -0.00134147       0.00243129      -0.00093371
Cu       6.38284014       8.10850915      18.36246262        2      -0.00680632       0.00147812       0.00553886
Cu       8.93391402       8.10827627      18.36611867        2       0.00171356      -0.00164019       0.00295799
Cu      11.48847729       8.10743483      18.36804372        2      -0.00640692      -0.00070017       0.00247662
Cu       0.00000000       0.00000000      20.42117236        1       0.00651607      -0.00260379       0.01975004
Cu       2.55265548       0.00000000      20.42117236        1       0.00265287      -0.00135559       0.01983819
Cu       5.10531096       0.00000000      20.42117236        1      -0.03403734      -0.10529450      -0.00282965
Cu       7.65796644       0.00000000      20.42117236        1       0.04039251      -0.06678783       0.02163186
Cu       1.27632774       2.21066449      20.42117236        1       0.00576193       0.00371011       0.02584967
Cu       3.82898322       2.21066449      20.42117236        1      -0.25856182      -0.07325494      -0.13760816
Cu       6.38163870       2.21066449      20.42117236        1       0.17018145      -0.22467153      -0.37190190
Cu       8.93429418       2.21066449      20.42117236        1       0.10142519      -0.01615152      -0.02497537
Cu       2.55265548       4.42132899      20.42117236        1      -0.01785976       0.00353478       0.02654470
Cu       5.10531096       4.42132899      20.42117236        1      -0.15785527       0.30363777      -0.23456483
Cu       7.65796644       4.42132899      20.42117236        1       0.19550894       0.17039813      -0.15243332
Cu      10.21062192       4.42132899      20.42117236        1       0.00319004      -0.00647805       0.02404792
Cu       3.82898322       6.63199348      20.42117236        1       0.00298918       0.00219637       0.03411716
Cu       6.38163870       6.63199348      20.42117236        1       0.01051375       0.01701644       0.02589754
Cu       8.93429418       6.63199348      20.42117236        1       0.00222581      -0.00853636       0.02540817
Cu      11.48694966       6.63199348      20.42117236        1       0.00964868      -0.00186683       0.01858584
O        5.87584540       3.00377783      22.42117236        0      -0.01943410      -0.00524454       0.65208852
C        6.38366109       3.11051853      23.48951056        0       0.00259704      -0.00553901       0.05191028
O        6.85622786       3.20776297      24.55768288        0      -0.00518227      -0.00078834      -0.00924177
