99
Lattice="10.210621920333747 0.0 0.0 5.105310960166873 8.842657971447272 0.0 0.0 0.0 30.421172358872745" Properties=species:S:1:pos:R:3:tags:I:1:forces:R:3 energy=-439.86163330078125 free_energy=-439.86163330078125 stress="0.018405243754386902 2.9848888516426086e-06 4.908069968223572e-07 2.9848888516426086e-06 0.018296832218766212 -4.777032881975174e-05 4.908069968223572e-07 -4.777032881975174e-05 0.010963980108499527" pbc="T T F"
Cu       1.26113762       0.75856976      10.19229931        6       0.00299839       0.00242301      -0.00165494
Cu       3.81457687       0.75857568      10.19137735        6       0.00147779       0.00240013      -0.00062510
Cu       6.36718839       0.75957379      10.19184639        6       0.00118764       0.00018200      -0.00045456
Cu       8.91908004       0.75943416      10.19289467        6       0.00285041       0.00132179      -0.00118747
Cu       2.53761383       2.96997610      10.19018890        6       0.00333396      -0.00119975       0.00143575
Cu       5.09076564       2.97046662      10.19079364        6       0.00117270      -0.00134557       0.00125041
Cu       7.64278411       2.97032555      10.19255230        6       0.00326621      -0.00022012       0.00003788
Cu      10.19549700       2.97012841      10.19162665        6       0.00271081      -0.00092000       0.00079121
Cu       3.81490730       5.18085920      10.19189313        6       0.00051482      -0.00104916      -0.00057012
Cu       6.36724613       5.18122285      10.19298479        6       0.00139316      -0.00121987      -0.00027533
Cu       8.91927903       5.18058009      10.19319512        6       0.00343159       0.00034869      -0.00051335
Cu      11.47248986       5.18056608      10.19158332        6       0.00094948       0.00054083      -0.00023876
Cu       5.09027634       7.39170065      10.19402280        6       0.00350106      -0.00084294      -0.00186380
Cu       7.64328476       7.39089966      10.19430002        6       0.00196760       0.00130883      -0.00191705
Cu      10.19607357       7.39113045      10.19302137        6       0.00297264      -0.00013069      -0.00105816
Cu      12.74889599       7.39149887      10.19317800        6       0.00041655       0.00023391      -0.00251538
Cu      -0.00776917       1.49099726      12.25341738        5       0.00029421       0.00046928       0.00146014
Cu       2.54537821       1.48991193      12.25152668        5       0.00153733       0.00090934       0.00177196
Cu       5.09755126       1.49155425      12.25203538        5       0.00200777      -0.00006328       0.00347547
Cu       7.64994223       1.49183782      12.25409565        5       0.00089526       0.00040489       0.00299867
Cu       1.26914584       3.70146771      12.25205417        5       0.00044044       0.00122203       0.00016930
Cu       3.82089411       3.70117324      12.25161480        5       0.00213287       0.00121671       0.00105770
Cu       6.37329591       3.70178014      12.25361151        5       0.00264791       0.00009227       0.00155245
Cu       8.92680182       3.70124415      12.25387508        5      -0.00101555       0.00094989       0.00172713
Cu       2.54543113       5.91316232      12.25208142        5       0.00164157       0.00095939       0.00207181
Cu       5.09828738       5.91231274      12.25385651        5       0.00062769       0.00101447       0.00257768
Cu       7.65060141       5.91214627      12.25561654        5       0.00038193      -0.00064368       0.00089401
Cu      10.20342836       5.91230072      12.25349407        5       0.00021957       0.00101778       0.00013527
Cu       3.82123808       8.12411001      12.25497514        5       0.00090946      -0.00070148       0.00243710
Cu       6.37436554       8.12336446      12.25545780        5       0.00066552      -0.00245417       0.00054968
Cu       8.92774207       8.12312603      12.25447381        5       0.00034358      -0.00169258       0.00091586
Cu      11.47964650       8.12497062      12.25378780        5       0.00105613      -0.00077299       0.00131842
Cu      -0.00358916      -0.00452641      14.29453657        4      -0.00209568      -0.00045318      -0.00072307
Cu       2.54995007      -0.00666796      14.29440094        4      -0.00231923       0.00062911      -0.00102714
Cu       5.09989372      -0.00265116      14.29385361        4      -0.00150719      -0.00079337      -0.00055551
Cu       7.65286963      -0.00262696      14.29539443        4      -0.00150745      -0.00030121      -0.00139631
Cu       1.27426795       2.20651401      14.28865248        4      -0.00253958      -0.00028325       0.00050994
Cu       3.82294601       2.20680187      14.29033293        4      -0.00137821      -0.00023801       0.00086558
Cu       6.37440847       2.20734520      14.29325856        4      -0.00020768      -0.00036099      -0.00027092
Cu       8.92949058       2.20634148      14.29385357        4      -0.00151870      -0.00054787      -0.00097799
Cu       2.54869765       4.42104535      14.28955631        4      -0.00247008      -0.00173756       0.00005811
Cu       5.09849181       4.41685529      14.29218968        4      -0.00014373       0.00047327       0.00119077
Cu       7.65145133       4.41594563      14.29500655        4      -0.00088281       0.00002709      -0.00106850
Cu      10.20518567       4.41750000      14.29118760        4      -0.00101819       0.00028497       0.00066528
Cu       3.82627742       6.62780311      14.29326815        4      -0.00258653       0.00014723      -0.00030721
Cu       6.37669052       6.62652430      14.29668188        4      -0.00164525       0.00002180      -0.00163542
Cu       8.92939572       6.62609913      14.29549165        4      -0.00127551       0.00054008      -0.00120258
Cu      11.48223176       6.63007339      14.29001253        4      -0.00189456      -0.00046529       0.00115818
Cu       1.28048196       0.73171885      16.32104389        3      -0.00343774      -0.00215325       0.00095102
Cu       3.83106729       0.72847778      16.32573077        3      -0.00340148      -0.00005493       0.00004326
Cu       6.38264546       0.72705764      16.32676466        3      -0.00217464      -0.00022840      -0.00027293
Cu       8.93792788       0.72718577      16.32545158        3      -0.00402914       0.00077385       0.00013837
Cu       2.55571561       2.94148893      16.32169021        3      -0.00339090      -0.00029626       0.00069300
Cu       5.10560654       2.93653795      16.32471481        3      -0.00334954      -0.00011418      -0.00062343
Cu       7.66117263       2.93412277      16.32496025        3      -0.00237461       0.00023242      -0.00021467
Cu      10.21652215       2.94067874      16.32044299        3      -0.00414802      -0.00077042       0.00092069
Cu       3.83209133       5.15058937      16.32544274        3      -0.00343480      -0.00100213      -0.00004982
Cu       6.38297122       5.14686104      16.32648209        3      -0.00293698       0.00078171      -0.00105589
Cu       8.93516711       5.14762116      16.32585709        3      -0.00223654       0.00021785      -0.00086826
Cu      11.48937169       5.15257449      16.32138943        3      -0.00332513      -0.00137490       0.00138414
Cu       5.10693084       7.35979733      16.32677191        3      -0.00254431      -0.00062699      -0.00079878
Cu       7.65921067       7.35964731      16.32557139        3      -0.00269993      -0.00016859      -0.00048094
Cu      10.21216473       7.36047457      16.32443873        3      -0.00304475      -0.00090569       0.00031994
Cu      12.76444911       7.36054996      16.32322668        3      -0.00263844      -0.00043160       0.00118769
Cu       0.00026474       1.47453337      18.36152702        2      -0.00156327       0.00113033      -0.00005217
Cu       2.55184121       1.47605431      18.36454738        2      -0.00197274      -0.00129534      -0.00135110
Cu       5.10631444       1.47475687      18.37014922        2      -0.00138168       0.00143914      -0.00218603
Cu       7.65479078       1.47451631      18.37288264        2      -0.00307061       0.00045419      -0.00135535
Cu       1.27638108       3.68566449      18.36401447        2      -0.00335453       0.00225346      -0.00038689
Cu       3.82818335       3.68472921      18.36717446        2      -0.00085397       0.00319492       0.00398418
Cu       6.38048728       3.68121541      18.36085971        2      -0.00382008       0.00002135       0.00073192
Cu       8.93464330       3.68232392      18.36456579        2      -0.00053222       0.00229337      -0.00060019
Cu       2.55270198       5.89655215      18.36501330        2       0.00001088      -0.00110044       0.00514691
Cu       5.10591144       5.89424421      18.36993018        2      -0.00546735       0.00011262      -0.00044873
Cu       7.65520114       5.89680741      18.36613807        2      -0.00080392       0.00062337      -0.00659348
Cu      10.20929650       5.89685285      18.36428119        2      -0.00245629      -0.00470002       0.00244591
Cu       3.82850021       8.10694591      18.36538023        2      -0.00119077       0.00069063       0.00002532
Cu       6.38065850       8.10836578      18.36269788        2      -0.00087968      -0.00090301       0.00014282
Cu       8.93325219       8.10796666      18.36574353        2      -0.00425411       0.00183859      -0.00047207
Cu      11.48697443       8.10821673      18.36808974        2       0.00044923       0.00283964       0.00058899
Cu       0.00000000       0.00000000      20.42117236        1       0.00511456      -0.00135239       0.01929690
Cu       2.55265548       0.00000000      20.42117236        1       0.00185252      -0.00236507       0.02088562
Cu       5.10531096       0.00000000      20.42117236        1      -0.03523508      -0.10482907      -0.00209553
Cu       7.65796644       0.00000000      20.42117236        1       0.04074843      -0.06524271       0.02022200
Cu       1.27632774       2.21066449      20.42117236        1       0.00190130       0.00313664       0.02471450
Cu       3.82898322       2.21066449      20.42117236        1      -0.26268882      -0.07063479      -0.15033169
Cu       6.38163870       2.21066449      20.42117236        1       0.17696013      -0.21805643      -0.37309143
Cu       8.93429418       2.21066449      20.42117236        1       0.09883393      -0.01316845      -0.02414686
Cu       2.55265548       4.42132899      20.42117236        1      -0.01528425       0.00458279       0.01888145
Cu       5.10531096       4.42132899      20.42117236        1      -0.15658602       0.30380812      -0.24593072
Cu       7.65796644       4.42132899      20.42117236        1       0.18928045       0.16282563      -0.14670332
Cu      10.21062192       4.42132899      20.42117236        1       0.00354570      -0.00501350       0.02220995
Cu       3.82898322       6.63199348      20.42117236        1       0.00319731       0.00165640       0.02929734
Cu       6.38163870       6.63199348      20.42117236        1       0.00769826       0.01811200       0.02740700
Cu       8.93429418       6.63199348      20.42117236        1       0.00135235      -0.00804736       0.02912429
Cu      11.48694966       6.63199348      20.42117236        1       0.01188839      -0.00042982       0.02151717
O        5.84655739       2.98801637      22.42117236        0       0.00803540      -0.00070148       0.71609306
C        6.36252011       3.10270928      23.48579461        0      -0.02061563      -0.00542215      -0.02261156
O        6.84490011       3.20982664      24.54829403        0      -0.00363264      -0.00233294       0.00333418
