99
Lattice="10.210621920333747 0.0 0.0 5.105310960166873 8.842657971447272 0.0 0.0 0.0 30.421172358872745" Properties=species:S:1:pos:R:3:tags:I:1:forces:R:3 energy=-439.9957275390625 free_energy=-439.9957275390625 stress="0.018812216818332672 1.6880221664905548e-06 6.719492375850677e-07 1.6880221664905548e-06 0.018707934767007828 -5.379039794206619e-05 6.719492375850677e-07 -5.379039794206619e-05 0.01047856267541647" pbc="T T F"
Cu       1.27310843       0.75382120      10.20585556        6       0.00091816      -0.00436147      -0.00700694
Cu       3.82643860       0.75332864      10.20646388        6      -0.00100375      -0.00603378      -0.00883511
Cu       6.37903488       0.75419461      10.20619413        6      -0.00030414      -0.00697167      -0.00822096
Cu       8.93161928       0.75426548      10.20593344        6      -0.00069069      -0.00580039      -0.00467847
Cu       2.55066630       2.96281038      10.20491882        6      -0.00346839       0.00138872      -0.00655193
Cu       5.10309621       2.96375308      10.20519672        6      -0.00269134      -0.00191457      -0.00840939
Cu       7.65551257       2.96408392      10.20587695        6      -0.00014990      -0.00262730      -0.00685181
Cu      10.20805861       2.96379264      10.20474945        6      -0.00063263      -0.00224112      -0.00211252
Cu       3.82641943       5.17484086      10.20531693        6      -0.00450805      -0.00454362      -0.00744447
Cu       6.37852836       5.17442523      10.20551721        6       0.00110821      -0.00427859      -0.00785353
Cu       8.93166561       5.17535795      10.20644694        6       0.00174265      -0.00685607      -0.00602575
Cu      11.48436114       5.17460217      10.20657955        6      -0.00105022      -0.00454083      -0.00574967
Cu       5.10316134       7.38616569      10.20594197        6      -0.00383192      -0.00505397      -0.01037889
Cu       7.65517406       7.38562144      10.20510693        6       0.00175338      -0.00312632      -0.00686215
Cu      10.20940769       7.38549386      10.20628447        6      -0.00618189      -0.00431198      -0.00502591
Cu      12.76109375       7.38648209      10.20486355        6      -0.00215718      -0.00549154      -0.00455041
Cu      -0.00139219       1.48048385      12.26707491        5      -0.00084441       0.00821416      -0.02271226
Cu       2.55127986       1.48157401      12.26494846        5       0.00449769       0.00393385      -0.01641405
Cu       5.10433131       1.48225072      12.26420548        5       0.00053716       0.00374384      -0.01590480
Cu       7.65570043       1.48114097      12.26579392        5       0.00337117       0.00685108      -0.01547251
Cu       1.27543140       3.69008410      12.26478196        5       0.00178852       0.01692611      -0.02044610
Cu       3.82763093       3.69098473      12.26359247        5       0.00250330       0.01430760      -0.01352198
Cu       6.38036154       3.68993795      12.26485303        5       0.00162019       0.01666678      -0.01216624
Cu       8.93307064       3.68981804      12.26559202        5      -0.00202802       0.01476675      -0.02131933
Cu       2.55052756       5.90434355      12.26393609        5       0.00384119       0.00221403      -0.01891359
Cu       5.10333347       5.90296882      12.26261150        5       0.00526059       0.00499837      -0.00060129
Cu       7.65600192       5.90254366      12.26316115        5      -0.00007973       0.00529694      -0.00323858
Cu      10.20895992       5.90286954      12.26724018        5       0.00068529       0.00476569      -0.03308693
Cu       3.82737322       8.11346915      12.26496458        5       0.00081993       0.00830099      -0.01149357
Cu       6.38009752       8.11345785      12.26418301        5       0.00070936       0.00267001      -0.00672341
Cu       8.93281105       8.11318095      12.26492519        5       0.00167911       0.00571766      -0.02218316
Cu      11.48522775       8.11396512      12.26566066        5       0.00187852       0.00702067      -0.02415420
Cu      -0.00330867      -0.00295637      14.30036017        4      -0.00247204      -0.00387363      -0.00432898
Cu       2.55088661      -0.00458409      14.29672767        4      -0.00217902      -0.00168095      -0.00035558
Cu       5.10032180      -0.00005274      14.29704308        4      -0.00186219      -0.00356161       0.00022866
Cu       7.65138566      -0.00190702      14.29910530        4       0.00118520      -0.00282648      -0.00210132
Cu       1.27535397       2.21011922      14.29710905        4      -0.00216095      -0.00318453      -0.00053420
Cu       3.82915520       2.21007962      14.29742566        4      -0.00287040      -0.00321773       0.00020436
Cu       6.37616428       2.20943886      14.30107318        4       0.00009359      -0.00266114      -0.00068203
Cu       8.92864467       2.20889957      14.30025561        4      -0.00183134      -0.00315468      -0.00302049
Cu       2.55231554       4.42318447      14.29606964        4      -0.00253367      -0.00410684       0.00045435
Cu       5.10374365       4.41989830      14.29871064        4      -0.00242236      -0.00332692       0.00019743
Cu       7.65311514       4.42080510      14.30079196        4      -0.00209961      -0.00425240      -0.00151688
Cu      10.20446321       4.41925779      14.29680873        4       0.00327212      -0.00194382       0.00027263
Cu       3.82595974       6.62819539      14.29800593        4      -0.00139560      -0.00170943      -0.00002530
Cu       6.37899442       6.62832801      14.30259055        4      -0.00340452      -0.00174606      -0.00755381
Cu       8.93051186       6.62936935      14.29968460        4      -0.00209872      -0.00275251      -0.00152008
Cu      11.48230176       6.63007686      14.29761575        4      -0.00154570      -0.00293049      -0.00009629
Cu       1.27427132       0.73163433      16.31542773        3      -0.00088652       0.00152340       0.06641733
Cu       3.82594660       0.73158358      16.32454430        3      -0.00269768      -0.00167130       0.00653455
Cu       6.37798132       0.72847074      16.32518949        3      -0.00379633       0.00154017       0.00925291
Cu       8.93097094       0.73114849      16.32049104        3      -0.00408271      -0.00329841       0.03696164
Cu       2.55050163       2.94222854      16.32318795        3      -0.00050656       0.00289170       0.01079993
Cu       5.10191067       2.93934151      16.32908302        3      -0.00309235      -0.00258624      -0.00014943
Cu       7.65460207       2.94008766      16.32817078        3      -0.00243388      -0.00309457      -0.00034496
Cu      10.20715154       2.94261658      16.31758368        3       0.00228314       0.00290619       0.04085698
Cu       3.82797100       5.15234378      16.32752801        3      -0.00298175      -0.00274823       0.00246535
Cu       6.37917368       5.15156149      16.32976475        3      -0.00290979      -0.00220457       0.00009689
Cu       8.93016445       5.15402126      16.32258690        3       0.00153452      -0.00125773       0.02655966
Cu      11.48488235       5.15272073      16.32070029        3      -0.00515494       0.00011936       0.02151235
Cu       5.10214904       7.36090139      16.32575221        3      -0.00311754      -0.00239495       0.01665549
Cu       7.65535621       7.36331714      16.32320842        3      -0.00094514       0.00335926       0.02808079
Cu      10.20785725       7.36349490      16.32171258        3      -0.00289883       0.00098723       0.02684502
Cu      12.76077590       7.36280715      16.32214496        3      -0.00430257      -0.00103631       0.02031053
Cu      -0.00824977       1.47304628      18.35699891        2       0.01596879      -0.00342645       0.02486598
Cu       2.54679985       1.47617360      18.36133838        2      -0.02069726      -0.01135319       0.02386573
Cu       5.09803752       1.47638383      18.37037035        2      -0.00551507      -0.01812646      -0.00306850
Cu       7.64716622       1.47491713      18.36481137        2       0.02304193      -0.02041282       0.01305168
Cu       1.26714379       3.68227749      18.35885343        2       0.00006016       0.00597416       0.04385125
Cu       3.82331297       3.68658579      18.37022229        2      -0.01128628       0.00083299       0.00716735
Cu       6.36878994       3.68396911      18.36199127        2       0.00860371      -0.00322798       0.00946008
Cu       8.92204930       3.68245229      18.36004891        2       0.04093187       0.00603833       0.02279878
Cu       2.54562989       5.89370297      18.36334592        2      -0.00452754       0.00624787       0.03184255
Cu       5.09775000       5.88502616      18.37626042        2      -0.00626741       0.01654150       0.00742317
Cu       7.64513859       5.89252642      18.36786368        2       0.02999363       0.02357726       0.00017911
Cu      10.19934723       5.89346497      18.35970636        2       0.01599636       0.00805157       0.03750825
Cu       3.82269766       8.10447538      18.36037186        2       0.00212223       0.00564041       0.03414537
Cu       6.37197611       8.10211300      18.35914393        2       0.01204015       0.02355393       0.02615236
Cu       8.92590647       8.10757201      18.36184151        2       0.00260843      -0.00770512       0.03181818
Cu      11.47891475       8.10792867      18.36348167        2       0.00506185      -0.01304160       0.02650401
Cu       0.00000000       0.00000000      20.42117236        1       0.00610296      -0.00547879       0.00577613
Cu       2.55265548       0.00000000      20.42117236        1      -0.00371464      -0.00739593       0.01175466
Cu       5.10531096       0.00000000      20.42117236        1      -0.00472658      -0.03238744       0.01789759
Cu       7.65796644       0.00000000      20.42117236        1       0.00447329      -0.02563899       0.01224960
Cu       1.27632774       2.21066449      20.42117236        1      -0.00345405      -0.00529493       0.00429531
Cu       3.82898322       2.21066449      20.42117236        1      -0.21260639      -0.21321516      -0.15105166
Cu       6.38163870       2.21066449      20.42117236        1       0.16771932      -0.31991097      -0.30068389
Cu       8.93429418       2.21066449      20.42117236        1       0.03385109      -0.01521348      -0.04540573
Cu       2.55265548       4.42132899      20.42117236        1      -0.17605808       0.02239890      -0.05196433
Cu       5.10531096       4.42132899      20.42117236        1      -0.13486719       0.28290799      -0.49148402
Cu       7.65796644       4.42132899      20.42117236        1       0.27468693       0.08936125      -0.19504562
Cu      10.21062192       4.42132899      20.42117236        1       0.00871923      -0.00437008      -0.00469229
Cu       3.82898322       6.63199348      20.42117236        1      -0.05063066       0.08181749      -0.00797157
Cu       6.38163870       6.63199348      20.42117236        1       0.03941551       0.12553212      -0.03224555
Cu       8.93429418       6.63199348      20.42117236        1       0.00572282      -0.00499822       0.01619655
Cu      11.48694966       6.63199348      20.42117236        1      -0.00207516       0.00008303       0.00705186
O        5.39093285       3.77848748      22.42117236        0       0.16098730      -0.08574810       0.95778620
C        6.37093983       3.41339805      23.00658355        0      -0.19850565       0.10579598      -0.10783280
O        7.25711931       3.07480149      23.69342485        0       0.03204652      -0.01315838       0.09023368
