99
Lattice="10.210621920333747 0.0 0.0 5.105310960166873 8.842657971447272 0.0 0.0 0.0 30.421172358872745" Properties=species:S:1:pos:R:3:tags:I:1:forces:R:3 energy=-440.3439025878906 free_energy=-440.3439025878906 stress="0.019114794209599495 2.270098775625229e-06 1.7695128917694092e-08 2.270098775625229e-06 0.019053064286708832 -5.115289241075516e-05 1.7695128917694092e-08 -5.115289241075516e-05 0.011162891983985901" pbc="T T F"
Cu       0.91711998       0.65252242      10.10133662        6      -0.00948317      -0.00118935      -0.00470815
Cu       3.46955136       0.65148867      10.09679020        6       0.00253475       0.00072350      -0.00046309
Cu       6.02087487       0.65669497      10.10265617        6       0.00047794      -0.00510644      -0.00254837
Cu       8.57176428       0.65399722      10.10885300        6       0.00250826      -0.00009122      -0.01401582
Cu       2.19374238       2.86328948      10.09733014        6      -0.00428122      -0.00404032       0.00574196
Cu       4.74487758       2.86522002      10.09846955        6      -0.00206417      -0.00753035       0.00184401
Cu       7.29675811       2.86800379      10.10533626        6       0.00412329      -0.01020326      -0.00367460
Cu       9.85008943       2.86444157      10.10674317        6       0.00026773      -0.00688749      -0.01196264
Cu       3.46820441       5.07496649      10.10041476        6       0.00061676       0.00000440      -0.00392782
Cu       6.01976575       5.07556592      10.09764473        6       0.00162481      -0.00081465       0.00441396
Cu       8.57649950       5.07569591      10.09951122        6      -0.01024833      -0.00721240       0.00697821
Cu      11.12778900       5.07522594      10.10160808        6       0.00210207      -0.00471568      -0.00490986
Cu       4.74341694       7.28617693      10.10209570        6       0.00043744      -0.00461241      -0.00427334
Cu       7.29788848       7.28460890      10.09640661        6      -0.00374553      -0.00376747       0.00294504
Cu       9.85204689       7.28453041      10.09844780        6      -0.00144825       0.00307094       0.00257276
Cu      12.40217464       7.28825383      10.09991726        6       0.00144762      -0.00940176       0.00477444
Cu      -0.36061058       1.37705402      12.16363139        5       0.00240421       0.00538388      -0.00158312
Cu       2.19445943       1.37766068      12.15632868        5      -0.00279632       0.00326018       0.01125172
Cu       4.74360027       1.38051858      12.16044764        5       0.00899597       0.00332218      -0.00108602
Cu       7.29589689       1.38102103      12.16588440        5       0.00654716       0.00085389       0.00177281
Cu       0.91925090       3.59010225      12.16070840        5      -0.00244547      -0.00029991       0.00516325
Cu       3.46941760       3.59181257      12.16087988        5      -0.00084184      -0.00779534      -0.00625458
Cu       6.01825370       3.59337045      12.16027590        5       0.00942876      -0.01276900       0.00475570
Cu       8.57472984       3.58994176      12.16493415        5       0.00015336       0.00025795      -0.00908807
Cu       2.19671326       5.80219524      12.16125404        5      -0.00992920      -0.00319705      -0.00631178
Cu       4.74415365       5.80080507      12.16334555        5       0.00023166      -0.00220751      -0.00793177
Cu       7.29499497       5.80355445      12.15590767        5       0.01247653      -0.00933428       0.00440544
Cu       9.85307198       5.80186524      12.16035251        5      -0.00368803      -0.00517527      -0.00036354
Cu       3.46849453       8.01064653      12.16489470        5      -0.00425566       0.00289893      -0.00270535
Cu       6.02044769       8.00935823      12.15961909        5       0.00529733       0.00708671      -0.00131602
Cu       8.57464523       8.01207184      12.15400682        5       0.00523942      -0.00413796       0.01428934
Cu      11.12971608       8.01473491      12.16151687        5      -0.00157622      -0.00690537      -0.00519209
Cu      -0.36434151      -0.12570088      14.20228114        4       0.00079917       0.00858812       0.00057316
Cu       2.19042340      -0.12456959      14.19645545        4      -0.00162672       0.01202407      -0.00647675
Cu       4.74589303      -0.12242129      14.19726589        4      -0.00336659       0.00099472       0.00118820
Cu       7.29560690      -0.12207813      14.21193613        4       0.00068909       0.00929112      -0.03030218
Cu       0.91279258       2.08647529      14.19673432        4       0.00528268       0.01041523       0.00274165
Cu       3.46640252       2.08916268      14.19749732        4      -0.00166588      -0.00046224       0.00105749
Cu       6.02250287       2.08743587      14.20539969        4      -0.00676114       0.00956588      -0.00567251
Cu       8.57275745       2.08527335      14.20820311        4      -0.00280947       0.01120130      -0.01206020
Cu       2.19191074       4.30037700      14.20065708        4      -0.00181807      -0.00111199      -0.00172075
Cu       4.74341605       4.29662119      14.20351939        4      -0.00434781       0.00117814      -0.00309774
Cu       7.29511145       4.30320995      14.19527206        4      -0.00179646      -0.00444971       0.00352248
Cu       9.84624090       4.29768787      14.20194876        4       0.00670509       0.00607708      -0.00776044
Cu       3.46233472       6.51172497      14.20525973        4       0.00529729      -0.00371600      -0.00550640
Cu       6.01474446       6.50952601      14.19963888        4       0.00067932       0.00239741      -0.00473826
Cu       8.57056738       6.51201619      14.19465363        4      -0.00112092      -0.00229736       0.00080519
Cu      11.12715349       6.51063920      14.19768574        4      -0.00249373      -0.00169675       0.00094806
Cu       0.90863847       0.60960782      16.22505190        3       0.00524836      -0.00119219       0.00000311
Cu       3.46419985       0.60838029      16.22103000        3      -0.00001817       0.00203956       0.00085020
Cu       6.01625024       0.60905070      16.23574635        3      -0.00154648      -0.00099818      -0.00135297
Cu       8.56862808       0.60547544      16.23955823        3      -0.00006736      -0.00059475      -0.00356126
Cu       2.18713196       2.82103318      16.22589147        3       0.00427116      -0.00135198      -0.00251008
Cu       4.73935176       2.81516653      16.23236492        3       0.00264547       0.00702332      -0.00432538
Cu       7.29589623       2.81719057      16.23646805        3      -0.00424015       0.00038174      -0.00383665
Cu       9.84744285       2.81334492      16.23301408        3       0.00285482       0.02047811      -0.00930344
Cu       3.46550122       5.02786973      16.23370553        3       0.00141822      -0.00509463      -0.01511208
Cu       6.01682027       5.02673775      16.22186054        3      -0.00290196      -0.00543396       0.02036104
Cu       8.56786986       5.02228634      16.22582905        3       0.01241746       0.01143156      -0.00266576
Cu      11.12596100       5.02626067      16.22315398        3      -0.00248176      -0.00084808       0.00082136
Cu       4.73719786       7.23666310      16.23198894        3      -0.00071145      -0.00052488      -0.00047224
Cu       7.28893789       7.23893466      16.22080566        3       0.00904109      -0.00151878      -0.00044142
Cu       9.84825998       7.23546705      16.22110106        3       0.00108156       0.00121350      -0.00404612
Cu      12.40009459       7.23730052      16.23596911        3      -0.00316006       0.00210227      -0.01070740
Cu      -0.36049557       1.34796712      18.26705914        2      -0.00068808       0.01939850       0.01680217
Cu       2.19200105       1.35842083      18.25561325        2       0.00382621      -0.00788153      -0.00094411
Cu       4.74157765       1.35154472      18.26999050        2       0.00802353       0.00581578      -0.00949053
Cu       7.29785200       1.34530883      18.27696637        2      -0.00489121       0.01427973       0.01283409
Cu       0.91764727       3.56218930      18.26350238        2      -0.00167300      -0.00069824       0.00829223
Cu       3.46896966       3.55813378      18.27043243        2      -0.00631727       0.00717935       0.00405465
Cu       6.01964448       3.55807116      18.26959748        2      -0.00190751      -0.00024047      -0.00400501
Cu       8.57384922       3.55483016      18.27250555        2       0.00471588       0.00721233      -0.00298495
Cu       2.19395080       5.76733718      18.26552160        2      -0.00266555      -0.00598589       0.02009335
Cu       4.73950010       5.76444480      18.26541762        2       0.00197883      -0.00072365      -0.00633675
Cu       7.29464169       5.76453630      18.25049997        2       0.01161317      -0.01004708       0.00349949
Cu       9.85800629       5.76627303      18.25219188        2      -0.00897435      -0.00901644       0.01504899
Cu       3.46457603       7.97734419      18.27482621        2      -0.00052214      -0.00773553      -0.01452793
Cu       6.02065509       7.98039209      18.25074484        2      -0.00524341      -0.00327870      -0.00382008
Cu       8.58179590       7.98097749      18.23885383        2      -0.01525799      -0.00663349       0.03002972
Cu      11.12939274       7.98067916      18.26231063        2      -0.00269742      -0.00409272       0.02056790
Cu      -0.35608013      -0.12557782      20.29790419        1       0.00233948      -0.00382489       0.00515226
Cu       2.21286782      -0.12044489      20.26850603        1       0.00202057      -0.00126608       0.00161568
Cu       4.76166342      -0.12816162      20.30444896        1       0.00426829      -0.00632702       0.01426415
Cu       7.30833128      -0.13105046      20.33516577        1      -0.00939563      -0.00651599      -0.00497254
Cu       0.92946734       2.08457591      20.31578512        1      -0.00712168       0.00840570      -0.00162735
Cu       3.48077439       2.08085420      20.32670143        1       0.00213106       0.00767195       0.00540581
Cu       6.03388868       2.08244575      20.33411780        1      -0.00770853      -0.01347395      -0.00105371
Cu       8.58416422       2.07789480      20.34020767        1       0.00428189       0.01289663      -0.02050159
Cu       2.20019127       4.28842789      20.32761334        1       0.01975552       0.00725444       0.00438094
Cu       4.75778604       4.28635200      20.32695381        1      -0.01933035       0.00494594       0.00910711
Cu       7.30653645       4.28378578      20.32256775        1       0.00826337       0.00992702      -0.01461642
Cu       9.86136934       4.28655990      20.31733249        1       0.00610293       0.00288697       0.00465083
Cu       3.47913956       6.49639266      20.32811807        1      -0.00903696      -0.00707601      -0.00318902
Cu       6.03117463       6.49517085      20.28679199        1      -0.00895110      -0.00919867      -0.00378429
Cu       8.59099301       6.49764408      20.27772313        1       0.00144531       0.00226956      -0.01119107
Cu      11.14403912       6.50038272      20.31283088        1      -0.00172729      -0.00201899       0.00159400
O       16.67295857       7.95134853      23.22977445        0      -0.06621764       0.06401236       0.03570079
C       17.67116127       7.34224519      23.38497040        0       0.14844207      -0.11704122       0.01867237
O       18.65585867       6.72104918      23.57232124        0      -0.07448502       0.05433819      -0.00451398
