99
Lattice="10.210621920333747 0.0 0.0 5.105310960166873 8.842657971447272 0.0 0.0 0.0 30.421172358872745" Properties=species:S:1:pos:R:3:tags:I:1:forces:R:3 energy=-440.2721862792969 free_energy=-440.2721862792969 stress="0.018704473972320557 3.325287252664566e-06 2.0815059542655945e-07 3.325287252664566e-06 0.0186096653342247 -4.8226676881313324e-05 2.0815059542655945e-07 -4.8226676881313324e-05 0.011168623343110085" pbc="T T F"
Cu       1.26946804       0.74115970      10.09395288        6       0.00545244      -0.00196491       0.00581641
Cu       3.82283934       0.73999660      10.09626139        6       0.00384770       0.00089336       0.00151255
Cu       6.37583283       0.74152218      10.09594681        6       0.00414597      -0.00389283       0.00184296
Cu       8.92787731       0.74014503      10.09534671        6       0.00382139       0.00069157       0.00277674
Cu       2.54738743       2.94808113      10.09765725        6       0.00064334       0.01041336      -0.00119951
Cu       5.09964543       2.94843549      10.09655442        6       0.00223117       0.00894899       0.00239218
Cu       7.65249565       2.94969903      10.09535199        6       0.00301791       0.00656894       0.00399085
Cu      10.20480044       2.94975103      10.09588569        6       0.00164060       0.00609847       0.00198392
Cu       3.82323553       5.15952140      10.09525447        6       0.00310314       0.00581671       0.00297948
Cu       6.37576655       5.15913281      10.09543063        6       0.00297521       0.00930838       0.00152496
Cu       8.92837470       5.16202935      10.09230930        6       0.00330266       0.00106761       0.00934268
Cu      11.48046201       5.15915842      10.09614458        6       0.00575463       0.00817828      -0.00008273
Cu       5.10004896       7.37307880      10.09494203        6       0.00049235      -0.00491967       0.00243589
Cu       7.65209747       7.37375996      10.09379172        6       0.00292013      -0.00432380       0.00399812
Cu      10.20586737       7.37396742      10.09502621        6       0.00011977      -0.00589437       0.00215787
Cu      12.75777425       7.37194888      10.09145055        6       0.00255091       0.00022776       0.01131099
Cu       0.00226596       1.47770228      12.15707990        5      -0.00310869       0.00475205       0.00843039
Cu       2.55458886       1.47728638      12.15796448        5      -0.00195660       0.00486977       0.00762878
Cu       5.10749270       1.47741739      12.15850196        5      -0.00241202       0.00446675       0.00772394
Cu       7.66030377       1.47813097      12.15778330        5      -0.00229132       0.00386171       0.00733543
Cu       1.27850610       3.68839293      12.15814541        5      -0.00240282       0.00577304       0.00808914
Cu       3.83118798       3.68842415      12.15794595        5      -0.00218407       0.00583780       0.00944378
Cu       6.38387009       3.68829134      12.15792240        5      -0.00214792       0.00557292       0.00721786
Cu       8.93644389       3.68914863      12.15653437        5      -0.00164130       0.00526567       0.00910757
Cu       2.55467703       5.89988074      12.15534067        5      -0.00189817       0.00318833       0.01474383
Cu       5.10773121       5.89945867      12.15609717        5      -0.00322887       0.00400913       0.01157307
Cu       7.66030022       5.89970903      12.15486272        5      -0.00190406       0.00359083       0.01394833
Cu      10.21239850       5.89950512      12.15621532        5      -0.00154870       0.00377987       0.01223477
Cu       3.83065638       8.10993081      12.15644928        5      -0.00173078       0.00292971       0.00890495
Cu       6.38402976       8.11032407      12.15584790        5      -0.00311629       0.00283368       0.01110743
Cu       8.93640244       8.10974352      12.15675228        5      -0.00125162       0.00354805       0.01097832
Cu      11.48951802       8.10982893      12.15586267        5      -0.00212076       0.00338740       0.01392165
Cu      -0.00079147      -0.00061595      14.19849378        4      -0.00185364      -0.00306696      -0.00625383
Cu       2.55142119      -0.00059998      14.19869365        4      -0.00129023      -0.00332822      -0.00479609
Cu       5.10416130      -0.00102291      14.19952695        4      -0.00164645      -0.00375591      -0.00362086
Cu       7.65683552      -0.00052639      14.19915674        4      -0.00185699      -0.00398852      -0.00397499
Cu       1.27520290       2.21001429      14.19885529        4      -0.00155120      -0.00287981      -0.00587971
Cu       3.82785361       2.20997612      14.19949077        4      -0.00191211      -0.00334984      -0.00652743
Cu       6.38085592       2.21007843      14.19964253        4      -0.00152414      -0.00363283      -0.00820261
Cu       8.93312636       2.21012524      14.19873489        4       0.00003078      -0.00287359      -0.00913796
Cu       2.55148193       4.42154767      14.19970504        4      -0.00202372      -0.00278948      -0.00520033
Cu       5.10441403       4.42153582      14.19969102        4      -0.00175276      -0.00285492      -0.01064070
Cu       7.65717416       4.42154584      14.19903273        4      -0.00000816      -0.00230283      -0.01094914
Cu      10.20954534       4.42108254      14.19953111        4      -0.00107174      -0.00213048      -0.00606818
Cu       3.82795996       6.63163447      14.19916423        4      -0.00228975      -0.00272114      -0.00515289
Cu       6.38062013       6.63186797      14.19849317        4      -0.00056445      -0.00187786      -0.00867135
Cu       8.93294102       6.63183172      14.19911147        4      -0.00077705      -0.00303785      -0.00473313
Cu      11.48610198       6.63178700      14.19948588        4      -0.00227112      -0.00337980      -0.00229574
Cu       1.27427662       0.73481359      16.22536253        3      -0.00206069      -0.00355353       0.00050222
Cu       3.82578837       0.73326877      16.22716180        3      -0.00278102      -0.00383380       0.00047509
Cu       6.37952653       0.73324499      16.22705552        3      -0.00222253      -0.00403909       0.00051579
Cu       8.93306016       0.73402608      16.22573045        3      -0.00167645      -0.00357592       0.00020800
Cu       2.54942164       2.94442720      16.22549775        3      -0.00272069      -0.00369066       0.00028662
Cu       5.10251411       2.94402073      16.22351718        3      -0.00247340      -0.00361419      -0.00013045
Cu       7.65781930       2.94445996      16.22378843        3      -0.00222652      -0.00365798      -0.00020270
Cu      10.20928863       2.94473010      16.22511860        3      -0.00191625      -0.00361296       0.00017975
Cu       3.82650226       5.15685081      16.22655440        3      -0.00255441      -0.00334853       0.00019147
Cu       6.38077740       5.15777432      16.22396509        3      -0.00241090      -0.00349547      -0.00021493
Cu       8.93359636       5.15729147      16.22697836        3      -0.00198452      -0.00312114       0.00023214
Cu      11.48435862       5.15663253      16.22968520        3      -0.00219846      -0.00320793       0.00094631
Cu       5.10337979       7.36836614      16.22585996        3      -0.00206829      -0.00206564       0.00019447
Cu       7.65668865       7.36870641      16.22704785        3      -0.00215448      -0.00267526       0.00043183
Cu      10.20809854       7.36692317      16.23044953        3      -0.00200587      -0.00315103       0.00185152
Cu      12.76087428       7.36720525      16.22949646        3      -0.00228517      -0.00314898       0.00133724
Cu       0.00367756       1.47048826      18.26403798        2      -0.00130782       0.00209162      -0.01009845
Cu       2.54603733       1.47030409      18.26629057        2      -0.00208696       0.00065859      -0.00836706
Cu       5.09775670       1.46727125      18.25823978        2      -0.00135257      -0.00192467      -0.00834260
Cu       7.66100332       1.46777154      18.25877888        2      -0.00198992      -0.00068218      -0.01566886
Cu       1.27166774       3.67977569      18.26573325        2      -0.00049473       0.00330113      -0.00532395
Cu       3.81888343       3.68073324      18.25467711        2       0.00506627       0.00174505      -0.01027684
Cu       6.38178295       3.68208568      18.24476047        2      -0.00301646       0.00205841      -0.01118128
Cu       8.93863882       3.68318203      18.25727528        2       0.00043574       0.00069391      -0.01447591
Cu       2.54942053       5.89752751      18.26807140        2      -0.00006477       0.00105099      -0.00787274
Cu       5.10358319       5.90583885      18.25484446        2      -0.00154546      -0.00638735      -0.00193820
Cu       7.65770974       5.90306153      18.25885737        2      -0.00085177       0.00038070      -0.00443555
Cu      10.20926551       5.89652428      18.27191239        2      -0.00103411       0.00204660      -0.00710526
Cu       3.82924626       8.11035204      18.26804658        2      -0.00077526       0.00202592      -0.00814120
Cu       6.38089559       8.11040401      18.26689785        2      -0.00097366       0.00296742      -0.00892054
Cu       8.93119410       8.10726220      18.27356804        2      -0.00160847       0.00042933      -0.00917974
Cu      11.48468258       8.10571022      18.27202693        2      -0.00058845       0.00214684      -0.00398973
Cu       0.00924342      -0.00572159      20.33269758        1      -0.00666531       0.00260852      -0.01111352
Cu       2.55796623      -0.00790428      20.33827239        1       0.00128621       0.00592176      -0.01320910
Cu       5.10868752      -0.01406659      20.33201130        1       0.00358520       0.02090584      -0.00883230
Cu       7.66319196      -0.01061418      20.32927885        1       0.00204600       0.01755686      -0.00772817
Cu       1.28212854       2.20157121      20.33237702        1      -0.00086209       0.00648532      -0.01258871
Cu       3.82464102       2.19525701      20.30697027        1       0.01988731       0.01969100      -0.00050444
Cu       6.38177142       2.19381111      20.27790662        1       0.00530092       0.02637077       0.01827863
Cu       8.94974053       2.20012861      20.29944432        1      -0.01855572       0.00769089       0.00658076
Cu       2.54713775       4.41752091      20.30850871        1       0.02578701      -0.00496118       0.01002882
Cu       5.10540017       4.42811184      20.26125828        1       0.01248474      -0.02087338       0.04326505
Cu       7.67320924       4.42757397      20.28060104        1      -0.01840174      -0.02226098       0.01482335
Cu      10.22062928       4.41740317      20.32262284        1      -0.00705365      -0.00915801      -0.00664554
Cu       3.83238843       6.63796711      20.31579368        1       0.01053869      -0.02006559       0.00198349
Cu       6.39226812       6.63818210      20.31502535        1      -0.00673802      -0.02495700      -0.00848881
Cu       8.94328344       6.62844908      20.33123173        1      -0.00677167      -0.00905565      -0.00804524
Cu      11.49128553       6.62889844      20.33530300        1       0.00704735      -0.00535011      -0.01283347
O        5.10020130       4.13857325      23.47701621        0       0.00697521       0.00199823       0.03352112
C        6.18473007       3.67616865      23.46740142        0       0.17330180      -0.06555402      -0.05415288
O        7.27025371       3.21086773      23.47135848        0      -0.14397110       0.05728359       0.03110783
