99
Lattice="10.210621920333747 0.0 0.0 5.105310960166873 8.842657971447272 0.0 0.0 0.0 30.421172358872745" Properties=species:S:1:pos:R:3:tags:I:1:forces:R:3 energy=-440.1196594238281 free_energy=-440.1196594238281 stress="0.017819784581661224 3.422144800424576e-06 3.9068982005119324e-07 3.422144800424576e-06 0.017719071358442307 -4.651444032788277e-05 3.9068982005119324e-07 -4.651444032788277e-05 0.010540002956986427" pbc="T T F"
Cu       0.75964709       0.56010896      10.09598097        6      -0.02123896      -0.00484025       0.00045150
Cu       3.30922428       0.55818826      10.10201409        6      -0.01095769       0.01391479       0.01656844
Cu       5.85574239       0.56153920      10.10254860        6       0.00005940      -0.00963374      -0.00734419
Cu       8.41055337       0.55949657      10.08240177        6       0.00689785      -0.00438670       0.02946096
Cu       2.03174926       2.76836940      10.09744890        6      -0.00847528       0.00267929       0.00909064
Cu       4.58461525       2.76663788      10.09932322        6      -0.00705950       0.00789719       0.00110908
Cu       7.13459128       2.76728388      10.09543343        6      -0.00167343       0.01672671      -0.00305024
Cu       9.68959650       2.76389714      10.09034035        6      -0.01178136       0.02399608       0.01730506
Cu       3.30953167       4.97628085      10.09821995        6      -0.02288513       0.02100668      -0.00846824
Cu       5.85774988       4.98583577      10.09365318        6       0.01503260      -0.01848297       0.00817664
Cu       8.40876543       4.97775296      10.10327910        6       0.00574404       0.00052003      -0.00842942
Cu      10.96340741       4.98383929      10.09883410        6      -0.00907077      -0.00970041      -0.00871249
Cu       4.58668369       7.18949574      10.08851488        6      -0.02237061       0.01479742       0.00919932
Cu       7.13931297       7.19541221      10.09747651        6      -0.01405677      -0.01668910       0.00826943
Cu       9.68063104       7.19321633      10.11360939        6       0.02203113      -0.01238864      -0.02987408
Cu      12.23763015       7.19549876      10.09915565        6       0.00342671      -0.01641811       0.00096666
Cu      -0.52381544       1.29428153      12.15246150        5      -0.00518891       0.00967984      -0.02036531
Cu       2.02478506       1.29649459      12.16494855        5       0.01453552       0.01396842      -0.02215892
Cu       4.58104037       1.30139949      12.17130865        5      -0.00924346      -0.00824263      -0.03727834
Cu       7.13360967       1.29640872      12.15366410        5       0.00699921       0.00019505      -0.00584714
Cu       0.74772301       3.50867752      12.15415853        5       0.00627876      -0.00641869       0.00032683
Cu       3.30427835       3.50963302      12.15610107        5      -0.01171921      -0.00945610       0.01216449
Cu       5.85699984       3.51137700      12.15537003        5       0.00933152      -0.00721475      -0.00886768
Cu       8.40569417       3.50364225      12.15790061        5       0.01334240       0.01046755      -0.01828452
Cu       2.02370895       5.71300106      12.15482595        5       0.00900735       0.03143424       0.01098052
Cu       4.58244538       5.71826802      12.15234745        5      -0.00594647       0.00528702       0.00127275
Cu       7.13610619       5.72115309      12.16146193        5      -0.00444029      -0.00294502      -0.02369817
Cu       9.68379149       5.71733447      12.16258323        5       0.00193928       0.00402929      -0.00159236
Cu       3.30912884       7.93185129      12.14816048        5      -0.02211100      -0.01744387      -0.00137736
Cu       5.85596655       7.92792509      12.15317730        5       0.01358485      -0.00179391      -0.00323334
Cu       8.40667677       7.93412616      12.16922421        5       0.00093442      -0.01042752      -0.02111665
Cu      10.95845816       7.93276675      12.16174928        5       0.01271314      -0.02023898       0.00087297
Cu      -0.52728492      -0.18954316      14.18444686        4      -0.00780376       0.00311875       0.03599659
Cu       2.01681784      -0.18422669      14.20170489        4      -0.00066142      -0.00139413      -0.00211144
Cu       4.57020523      -0.18890618      14.20638949        4       0.00930253       0.02357566      -0.02046805
Cu       7.12726727      -0.18564004      14.18835716        4       0.00713258      -0.01169722       0.01394119
Cu       0.73844191       2.03183706      14.19323039        4       0.01599582      -0.01391304       0.01940109
Cu       3.29788185       2.03395942      14.20307513        4      -0.01836461      -0.02682630      -0.00923241
Cu       5.85956165       2.02475203      14.19850348        4      -0.00620513      -0.00231610      -0.00003622
Cu       8.40777740       2.02562081      14.18990386        4      -0.00452264      -0.00341617       0.01027876
Cu       2.01478317       4.23824149      14.20046961        4       0.00594252      -0.00423238      -0.01401215
Cu       4.57876806       4.23214227      14.19104563        4      -0.01648661       0.01765431       0.01280040
Cu       7.12531668       4.23847663      14.19793540        4       0.01079824      -0.00396818      -0.00728088
Cu       9.67447536       4.23598915      14.19609460        4       0.00549526       0.00550968       0.02914519
Cu       3.29917245       6.44447552      14.18600541        4      -0.00311413      -0.00322466       0.00446000
Cu       5.85006677       6.44240718      14.19344130        4      -0.00092589       0.00205223      -0.00124756
Cu       8.40370651       6.44808462      14.20543126        4      -0.00655240      -0.00621489      -0.00165914
Cu      10.95010690       6.44552171      14.20357455        4       0.02394898       0.00370490      -0.02904273
Cu       0.73729611       0.55298193      16.22562997        3      -0.00097731      -0.00614576      -0.00494050
Cu       3.28548811       0.54659424      16.22780303        3       0.01258555       0.01237708      -0.00352140
Cu       5.85100112       0.55165755      16.21646265        3      -0.00496900      -0.00609176       0.00292697
Cu       8.40770216       0.54946683      16.21128557        3      -0.00573212      -0.00497486       0.00355064
Cu       2.00613683       2.76409543      16.23192313        3       0.01670662      -0.01138609      -0.00537080
Cu       4.56163217       2.76831515      16.22088292        3       0.02642231      -0.02298456       0.01884232
Cu       7.12519623       2.77049944      16.22331913        3       0.00087219      -0.02196726      -0.02073697
Cu       9.67588281       2.76420992      16.23252105        3      -0.00523985      -0.00121868      -0.00830872
Cu       3.28851287       4.97125137      16.22094121        3       0.02190551       0.00662958       0.00986771
Cu       5.84685302       4.97452108      16.22588144        3      -0.00975429      -0.00248402      -0.00736880
Cu       8.39307022       4.97217090      16.23376851        3       0.01316338       0.01384037      -0.01601923
Cu      10.94933454       4.97501966      16.23675332        3      -0.02160187      -0.00952962      -0.00761203
Cu       4.57473317       7.17635278      16.22122106        3      -0.01366444       0.02025892      -0.03462208
Cu       7.10878930       7.18061661      16.22885542        3       0.04199849       0.01019298       0.00270712
Cu       9.66810907       7.17995451      16.23149078        3      -0.00281452      -0.00312811       0.00070466
Cu      12.23274768       7.17273471      16.22070218        3      -0.00446697       0.03853358      -0.01763541
Cu      -0.53380359       1.29073011      18.26190153        2      -0.00131732      -0.00844267      -0.00334646
Cu       2.01049499       1.28625697      18.26439994        2       0.01265586       0.03050101       0.03200611
Cu       4.56417696       1.29411292      18.24511717        2      -0.00715699      -0.02228059       0.02156429
Cu       7.12616515       1.29779916      18.23199459        2      -0.02658919      -0.00957397      -0.00066328
Cu       0.73782150       3.50738172      18.27733994        2      -0.02153686      -0.01181934      -0.00964216
Cu       3.28791305       3.50991235      18.26033392        2       0.00334633      -0.02683028       0.02029132
Cu       5.84582465       3.51774141      18.25106366        2      -0.03522852      -0.03169241       0.02727806
Cu       8.39438427       3.50737020      18.26447320        2       0.00116155       0.01988261      -0.00212685
Cu       2.01305777       5.71015470      18.26759149        2      -0.00701400       0.02046995      -0.00943966
Cu       4.56697816       5.71895440      18.26271429        2      -0.02056448      -0.01474320       0.01799601
Cu       7.10608401       5.71801938      18.27609896        2       0.02444189       0.00719414      -0.01444493
Cu       9.65213625       5.71550658      18.27288715        2       0.04050263      -0.00343394      -0.01742699
Cu       3.30471285       7.91573857      18.24266452        2      -0.02204562       0.01776074       0.02430507
Cu       5.83745095       7.92847833      18.27144221        2       0.01342248      -0.00330310      -0.00018364
Cu       8.37577841       7.91827046      18.26703251        2       0.04358725       0.02528639       0.00336215
Cu      10.94500198       7.91657526      18.24087174        2      -0.04583293       0.00817816       0.00054001
Cu      -0.54147447      -0.19394208      20.32724331        1      -0.02169658       0.03777221      -0.00246229
Cu       2.01177234      -0.18319135      20.33995996        1      -0.00130622      -0.00181455      -0.02493451
Cu       4.55639658      -0.18785101      20.30204566        1       0.01313983       0.00219968      -0.01445346
Cu       7.10641833      -0.18793919      20.23453803        1       0.01788394       0.00392264       0.07372151
Cu       0.73886399       2.02473637      20.32708145        1       0.00169605      -0.00473602       0.00146933
Cu       3.29819915       2.02711605      20.30932692        1      -0.03989024      -0.00559286       0.00464275
Cu       5.83973207       2.03855950      20.26970656        1      -0.00759575      -0.03061966       0.02993203
Cu       8.39987729       2.02944807      20.28729824        1      -0.00494907       0.00686080      -0.03424313
Cu       2.01060006       4.24118395      20.32479089        1       0.00924532      -0.02438327       0.01307402
Cu       4.55852276       4.23965554      20.31512539        1       0.02464849       0.01065786      -0.00007039
Cu       7.11365912       4.23745957      20.32021013        1       0.01419163       0.02436635       0.00240110
Cu       9.66910243       4.24145858      20.33104615        1       0.00234755      -0.02185017      -0.00545161
Cu       3.28083166       6.44821397      20.32336969        1       0.01636930       0.00683915      -0.00055251
Cu       5.83274934       6.44995249      20.33192036        1       0.02526228      -0.01211403       0.00376320
Cu       8.39515875       6.44513606      20.33458724        1      -0.02768171       0.00797224      -0.00644357
Cu      10.94131685       6.44744763      20.30759783        1      -0.00537273      -0.00617300       0.02580901
O       22.28476001      10.14187425      23.67382213        0       0.04089648      -0.03477725       0.00408662
C       23.24334139       9.47845921      23.49505798        0      -0.12227103       0.09747446      -0.00431383
O       24.20093232       8.81258209      23.33296033        0       0.08119676      -0.04337368      -0.00595795
