99
Lattice="10.210621920333747 0.0 0.0 5.105310960166873 8.842657971447272 0.0 0.0 0.0 30.421172358872745" Properties=species:S:1:pos:R:3:tags:I:1:forces:R:3 energy=-440.1964416503906 free_energy=-440.1964416503906 stress="0.020681586116552353 3.0384398996829987e-06 -1.6763806343078613e-07 3.0384398996829987e-06 0.020630180835723877 -5.183368921279907e-05 -1.6763806343078613e-07 -5.183368921279907e-05 0.012688253074884415" pbc="T T F"
Cu       1.17578825       0.72530036      10.09822922        6      -0.04569160      -0.03905432      -0.00706023
Cu       3.72373251       0.70525340      10.11337847        6      -0.02034818       0.01157410      -0.03270638
Cu       6.27460546       0.72061292      10.10850034        6      -0.01420484      -0.00690288      -0.02659603
Cu       8.83108471       0.72861573      10.10899938        6      -0.03048609      -0.03655912      -0.03796860
Cu       2.45420093       2.93105325      10.09273239        6      -0.02510915      -0.03248880      -0.00523590
Cu       4.99949882       2.92404062      10.09281690        6      -0.02068090      -0.00637144      -0.00948952
Cu       7.55810355       2.93166339      10.09973088        6      -0.02959764      -0.00960367      -0.02767887
Cu      10.11492251       2.93169394      10.09425647        6      -0.04150464      -0.01614768      -0.00113586
Cu       3.72099344       5.14329043      10.06616282        6      -0.00396465      -0.00877303       0.04714946
Cu       6.27504787       5.13259958      10.09620185        6      -0.01783719       0.00406410      -0.04478245
Cu       8.83971954       5.14679509      10.07544747        6      -0.06585220      -0.04442094       0.03506818
Cu      11.38597687       5.13328065      10.08754950        6      -0.01879937       0.01199806       0.00647103
Cu       4.99754667       7.35250604      10.09446684        6      -0.02650532      -0.00472700      -0.01806927
Cu       7.54963224       7.34720184      10.10588269        6      -0.01426071      -0.01664420      -0.03739747
Cu      10.11258195       7.34501661      10.11546153        6      -0.05012056       0.00035894      -0.04725659
Cu      12.65406530       7.35818627      10.07166658        6      -0.00464284      -0.02141011       0.05997268
Cu      -0.14173036       1.43284168      12.16088916        5       0.00817773       0.00475700       0.01369213
Cu       2.40876936       1.42915811      12.15365868        5       0.00458829       0.01662788       0.05749056
Cu       4.95837270       1.44286805      12.15870995        5       0.00062816      -0.01422909       0.02364175
Cu       7.51577058       1.44556639      12.16319482        5      -0.00785860      -0.02994457       0.01726085
Cu       1.14699597       3.64081464      12.15503616        5      -0.01595955       0.00652609       0.00914572
Cu       3.69551786       3.66019879      12.14281590        5      -0.03198611      -0.03362558       0.02735568
Cu       6.24337477       3.64768184      12.15020713        5      -0.01627470      -0.02247131       0.02098445
Cu       8.80113051       3.64433672      12.14831292        5       0.00427585      -0.01024768       0.01833580
Cu       2.42174278       5.86237831      12.13748706        5      -0.02686344       0.00518544       0.02781466
Cu       4.97286824       5.85480562      12.14598220        5      -0.04951746       0.01022849      -0.00191669
Cu       7.51748776       5.84219222      12.14612924        5       0.02809493       0.03176813       0.00425564
Cu      10.07143484       5.84096812      12.15059761        5       0.01799009       0.02968300       0.01083748
Cu       3.68512620       8.06736414      12.15266521        5      -0.00937268       0.01681439       0.01347788
Cu       6.24040715       8.05880002      12.15353829        5      -0.01146903       0.04275236       0.03188397
Cu       8.78708212       8.05556402      12.16710889        5       0.02100733       0.02528084      -0.01166445
Cu      11.34735327       8.07209031      12.15730558        5       0.00585016       0.00313075       0.02141548
Cu      -0.17962723      -0.06616579      14.20823089        4       0.01005899       0.00803454      -0.01397227
Cu       2.37256732      -0.07289013      14.21236393        4      -0.01627239       0.06689303      -0.07196750
Cu       4.91955374      -0.05513768      14.20020620        4       0.00812977       0.02374171      -0.02440874
Cu       7.47688338      -0.05518479      14.21751858        4      -0.01610812      -0.00203046      -0.10665657
Cu       1.08988272       2.15006285      14.20721581        4       0.02944851      -0.00863567      -0.02670984
Cu       3.63212156       2.16132739      14.19671414        4       0.02353927      -0.00776657      -0.01893556
Cu       6.19384563       2.15500649      14.20399581        4      -0.01218228      -0.00350687      -0.02622079
Cu       8.75634448       2.13987607      14.20932582        4      -0.02151673       0.02386249      -0.04446676
Cu       2.36941650       4.37941018      14.19388363        4       0.01084692      -0.01920465      -0.01515727
Cu       4.91951879       4.36443422      14.19373765        4      -0.00477033      -0.00894173      -0.00336409
Cu       7.48865842       4.35715659      14.18504814        4      -0.04187487      -0.03251787       0.03649801
Cu      10.03455171       4.35677390      14.20190357        4      -0.00457293      -0.00533621      -0.02506345
Cu       3.65687943       6.58266725      14.19326902        4      -0.02988314      -0.04091146       0.01072797
Cu       6.21083496       6.56556156      14.18901863        4      -0.02957531      -0.00118324       0.01752148
Cu       8.76254580       6.56180717      14.19486741        4      -0.01293228      -0.00306476      -0.00345244
Cu      11.30660867       6.58214995      14.18822476        4       0.00762733      -0.01611027       0.00178805
Cu       1.06103983       0.66753890      16.24075029        3      -0.00924195      -0.00813725      -0.02921920
Cu       3.60945275       0.68409173      16.23284697        3      -0.01954255      -0.01885965      -0.00611200
Cu       6.15123383       0.67065874      16.23950170        3       0.01005098      -0.00492660      -0.00248689
Cu       8.70939812       0.65527216      16.24835071        3       0.03203791       0.00968543      -0.02022584
Cu       2.32798599       2.89946430      16.23257606        3      -0.00891257      -0.07165264      -0.04125229
Cu       4.87170661       2.87593765      16.23926307        3       0.03651793       0.01935680      -0.03884724
Cu       7.42606219       2.86522492      16.23177819        3       0.00070914       0.00811146       0.00000458
Cu       9.97354966       2.87401066      16.23682068        3       0.04405554      -0.00335241      -0.02000017
Cu       3.60387804       5.08484082      16.24049917        3       0.04227949       0.04674875      -0.03670651
Cu       6.15522995       5.07054816      16.21439500        3       0.02518203       0.04960389       0.10575689
Cu       8.70022364       5.07311490      16.22920886        3       0.02205329       0.04975030       0.02140562
Cu      11.25990033       5.09845672      16.22748372        3      -0.00718466      -0.00268108      -0.00277292
Cu       4.88779876       7.28190000      16.24060360        3       0.00431778       0.05593929      -0.00972344
Cu       7.43166665       7.28360195      16.22695420        3       0.01213823       0.03088402       0.02381675
Cu       9.97707388       7.30587360      16.21932909        3       0.04514118      -0.00009965       0.02252173
Cu      12.54042128       7.29389775      16.23097006        3       0.01833568       0.03626689       0.00552062
Cu      -0.24334247       1.39168954      18.26871118        2      -0.04417284       0.07174428       0.05584412
Cu       2.30891852       1.41994444      18.27421600        2      -0.01095011      -0.02335065       0.02264090
Cu       4.85279763       1.41301437      18.29040851        2       0.02215185      -0.00648260      -0.03783773
Cu       7.40360814       1.39171702      18.28380834        2       0.01256309       0.04977001      -0.00226827
Cu       1.02065486       3.61086204      18.24515851        2      -0.04434847       0.03709988       0.07103430
Cu       3.57717569       3.61466247      18.27980482        2       0.03516002       0.01527780      -0.01873949
Cu       6.11747996       3.60997790      18.27621525        2       0.06179757       0.02916923       0.01025234
Cu       8.65408884       3.59976736      18.26387148        2       0.07510136       0.05241014       0.01766321
Cu       2.29613831       5.83856462      18.26317046        2       0.01578951      -0.02718806      -0.00488881
Cu       4.85163672       5.83058767      18.28791068        2       0.02620212      -0.00766532      -0.04115507
Cu       7.38446813       5.83002556      18.27829502        2       0.05055577      -0.04242115      -0.03596527
Cu       9.94936152       5.84678035      18.24774369        2      -0.02592915      -0.07647751       0.01876936
Cu       3.57569160       8.03363928      18.29033803        2       0.01580598       0.02545188      -0.06818736
Cu       6.13409129       8.03869951      18.27741414        2      -0.00829613       0.00152925       0.02404874
Cu       8.67396497       8.05171869      18.25019913        2       0.02229093      -0.01865048       0.10099698
Cu      11.23181315       8.04051486      18.26584834        2      -0.00441426       0.02789607       0.00279895
Cu      -0.26077949      -0.05455303      20.33663342        1      -0.00185318      -0.02545036       0.02310346
Cu       2.28942828      -0.05541906      20.33215423        1       0.01692501      -0.02808012       0.00192610
Cu       4.83438218      -0.05976104      20.32085803        1       0.02779722      -0.02732930       0.02392116
Cu       7.38718015      -0.06674283      20.33969780        1       0.01576420       0.03395522       0.00184093
Cu       1.00900476       2.14280880      20.31483537        1       0.00897614       0.03893664       0.02495400
Cu       3.57010900       2.13842657      20.35166257        1      -0.00765297       0.03430511      -0.05732801
Cu       6.12206067       2.14923860      20.34610564        1       0.01409868      -0.01261294      -0.01114732
Cu       8.67023482       2.14484070      20.34040669        1       0.01108762      -0.01050511      -0.02219178
Cu       2.28638519       4.35887162      20.26928345        1      -0.05693877      -0.02482605      -0.00221331
Cu       4.85333482       4.37296180      20.32692330        1       0.00886397      -0.05000344      -0.03736595
Cu       7.39617775       4.35753810      20.33908344        1      -0.01165785      -0.00347687      -0.02410140
Cu       9.93109707       4.35853364      20.26296614        1       0.04812243      -0.01821451       0.09858619
Cu       3.56573548       6.58824536      20.33600490        1       0.01852611      -0.01676062      -0.08182716
Cu       6.12330977       6.58203281      20.35875199        1       0.00061374      -0.02326073      -0.06405643
Cu       8.66320459       6.57116514      20.30053871        1       0.01391265       0.01890791       0.03966698
Cu      11.21406636       6.57788811      20.30330654        1      -0.00503822      -0.01880036      -0.02655564
O       11.41361493       5.91523892      23.64840327        0       0.04201468       0.07429866      -0.13889420
C       12.40820688       5.38132787      23.30940647        0       0.49807167      -0.47153634       0.28331602
O       13.42041034       4.78440202      23.10837510        0      -0.48054865       0.38525259       0.05822379
