99
Lattice="10.210621920333747 0.0 0.0 5.105310960166873 8.842657971447272 0.0 0.0 0.0 30.421172358872745" Properties=species:S:1:pos:R:3:tags:I:1:forces:R:3 energy=-440.0338134765625 free_energy=-440.0338134765625 stress="0.01676347479224205 4.077795892953873e-06 3.832392394542694e-07 4.077795892953873e-06 0.016650743782520294 -4.308158531785011e-05 3.832392394542694e-07 -4.308158531785011e-05 0.010013516992330551" pbc="T T F"
Cu       0.72114982       0.55536658      10.09914154        6      -0.00269853      -0.00061745       0.00336631
Cu       3.27340912       0.55427730      10.09928798        6      -0.00000874       0.00214293      -0.00117301
Cu       5.82509768       0.55557931      10.10043331        6       0.00215420      -0.00097914      -0.00116686
Cu       8.37761893       0.55467092      10.10089148        6       0.00416834       0.00376773       0.00132066
Cu       1.99798453       2.76635865      10.09986146        6      -0.00257679      -0.00227906      -0.00066567
Cu       4.54899906       2.76620421      10.10025449        6       0.00187721       0.00095130      -0.00060586
Cu       7.10137444       2.76639873      10.10065608        6       0.00246783       0.00019911      -0.00057865
Cu       9.65490715       2.76587509      10.09893096        6       0.00016059       0.00057705       0.00193631
Cu       3.27304986       4.97737702      10.10257905        6      -0.00090038      -0.00002549      -0.00210216
Cu       5.82421937       4.97844205      10.10215814        6       0.00462149      -0.00252561       0.00001876
Cu       8.37799016       4.97719626      10.10117021        6      -0.00090146      -0.00090972      -0.00047295
Cu      10.93098542       4.97700968      10.10092084        6       0.00148261      -0.00125800      -0.00051023
Cu       4.54818320       7.18761255      10.10355092        6       0.00308400       0.00202044      -0.00214483
Cu       7.10204472       7.18797741      10.10137249        6      -0.00307432      -0.00328056      -0.00029193
Cu       9.65484044       7.18673733      10.10124280        6       0.00083319       0.00042195      -0.00306070
Cu      12.20640608       7.18801481      10.10186793        6       0.00322144      -0.00283714       0.00028456
Cu      -0.55245466       1.28859270      12.16027041        5       0.00068178      -0.00190913      -0.00109507
Cu       2.00036130       1.28633370      12.16004796        5      -0.00224606       0.00028485       0.00070392
Cu       4.55044292       1.28631813      12.15972785        5       0.00385342       0.00181749       0.00073025
Cu       7.10342383       1.28658198      12.16153531        5       0.00205415       0.00401874      -0.00451122
Cu       0.72433458       3.49764166      12.16000082        5      -0.00062063      -0.00025106       0.00284195
Cu       3.27495111       3.49832235      12.16160583        5       0.00393316      -0.00090308       0.00231103
Cu       5.82720748       3.49880906      12.16046984        5      -0.00029508      -0.00159420       0.00103575
Cu       8.38095433       3.49821146      12.16028902        5       0.00067787      -0.00107700      -0.00126085
Cu       1.99822724       5.70872679      12.16298258        5       0.00122653      -0.00000559       0.00179715
Cu       4.54937170       5.71037613      12.16445404        5       0.00338868      -0.00147790       0.00040615
Cu       7.10328613       5.70922310      12.16287123        5      -0.00218290       0.00044450      -0.00476505
Cu       9.65710094       5.70842720      12.16201596        5       0.00285989      -0.00334700      -0.00071620
Cu       3.27319905       7.92088346      12.16428968        5       0.00354151      -0.00174643      -0.00450390
Cu       5.82626685       7.92035428      12.16227646        5       0.00234269      -0.00197140      -0.00228146
Cu       8.38061141       7.91758757      12.16047184        5      -0.00073794       0.00057083      -0.00375625
Cu      10.93271533       7.91904964      12.16223074        5       0.00160111      -0.00226482      -0.00111594
Cu      -0.55995315      -0.20299844      14.20031249        4       0.00055404      -0.00293004       0.00077955
Cu       1.99808598      -0.21077099      14.19727987        4      -0.00360057       0.00231986       0.00077172
Cu       4.54677253      -0.21034251      14.19799389        4      -0.00111562      -0.00016576       0.00083332
Cu       7.09667700      -0.20573343      14.20341921        4      -0.00029706      -0.00175243      -0.00016965
Cu       0.72311462       2.00349084      14.19972356        4      -0.00110348      -0.00204094       0.00052611
Cu       3.27447559       2.00210721      14.19912822        4      -0.00163040      -0.00093431       0.00074392
Cu       5.82314309       2.00322265      14.19802987        4      -0.00148414      -0.00032327       0.00064899
Cu       8.37692965       2.00296285      14.19790608        4      -0.00108827      -0.00032454       0.00091497
Cu       1.99793146       4.21302543      14.20196061        4      -0.00114961      -0.00033621       0.00016693
Cu       4.54940116       4.21516602      14.20118251        4      -0.00239385      -0.00013948       0.00060701
Cu       7.10047623       4.21377398      14.19809630        4      -0.00130534       0.00050558       0.00032165
Cu       9.65592899       4.20959344      14.19889894        4      -0.00143685       0.00411433       0.00004576
Cu       3.26739356       6.42824036      14.20374405        4       0.00114510      -0.00174177       0.00071843
Cu       5.82218674       6.42715252      14.20257826        4      -0.00105335      -0.00087301      -0.00171475
Cu       8.37887377       6.42112301      14.19939499        4      -0.00206853      -0.00019274      -0.00000266
Cu      10.92956390       6.42331670      14.20330765        4      -0.00097148      -0.00095950      -0.00044791
Cu       0.71453601       0.52413378      16.22568282        3       0.00089997       0.00122725      -0.00008096
Cu       3.26101261       0.52485833      16.22592691        3       0.00096079       0.00158708       0.00218485
Cu       5.80792525       0.52757097      16.22475656        3       0.00037584      -0.00220378       0.00014522
Cu       8.36878785       0.52708476      16.22727787        3      -0.00068603      -0.00225316      -0.00012100
Cu       1.99150373       2.73679549      16.23060939        3      -0.00134712      -0.00078749       0.00095559
Cu       4.53669347       2.73978107      16.22950610        3       0.00084545      -0.00034038       0.00085734
Cu       7.08956105       2.74062929      16.22299498        3      -0.00002689      -0.00142461      -0.00107204
Cu       9.64742306       2.73474281      16.22585435        3       0.00118781       0.00108110       0.00016205
Cu       3.26229209       4.94980442      16.23344679        3       0.00242251       0.00144406       0.00120700
Cu       5.81444861       4.95071137      16.22836196        3       0.00139045       0.00158943       0.00147084
Cu       8.37012231       4.94712799      16.22417921        3       0.00001902       0.00928348      -0.00208005
Cu      10.92324543       4.94492706      16.22993276        3      -0.00045685       0.00122431       0.00193438
Cu       4.54004205       7.15856946      16.23104366        3      -0.00009620       0.00116383      -0.00088005
Cu       7.09303008       7.15858033      16.22662899        3      -0.00006557      -0.00055462       0.00171639
Cu       9.64201414       7.15612613      16.22763766        3       0.00183901       0.00429629      -0.00142304
Cu      12.19459791       7.15789333      16.23464610        3       0.00433391       0.00497269      -0.00428851
Cu      -0.56001624       1.26962930      18.25388043        2      -0.00131559       0.00205484       0.00084681
Cu       1.98456917       1.27633902      18.26774212        2      -0.00250714       0.00288391      -0.00014623
Cu       4.52657515       1.27458637      18.26317892        2       0.00872371      -0.00064599      -0.00058378
Cu       7.07850971       1.27309528      18.24110871        2      -0.00461713      -0.00193264       0.00890942
Cu       0.70820849       3.48519381      18.26689024        2      -0.00140588       0.00010736       0.00117756
Cu       3.25961184       3.48854836      18.27225351        2       0.00281707      -0.00128505      -0.00419795
Cu       5.81156489       3.49150739      18.26067303        2      -0.00589841      -0.00557255       0.00446306
Cu       8.36323031       3.49474051      18.24828948        2       0.00153255       0.00432402      -0.00485751
Cu       1.98158457       5.69681698      18.27242594        2       0.00233785       0.00200688       0.00460554
Cu       4.53718224       5.69865697      18.27233874        2      -0.00299423      -0.00112563      -0.00820833
Cu       7.08813231       5.70265989      18.26388516        2       0.00243373       0.00032242      -0.00165472
Cu       9.63979807       5.70007094      18.26308601        2       0.00059574      -0.00298389       0.00635150
Cu       3.26487499       7.90464434      18.26394405        2      -0.00497707       0.00131415      -0.00503454
Cu       5.81508195       7.90784590      18.26653381        2      -0.00037725       0.00033799       0.00619141
Cu       8.36293188       7.90855095      18.26578876        2      -0.00426494       0.00105825       0.00068022
Cu      10.90877509       7.90447104      18.26091889        2      -0.00076727       0.00356765       0.00164471
Cu      -0.56982376      -0.19438481      20.32341826        1       0.00093452       0.00016367       0.00720959
Cu       1.98490413      -0.19487502      20.32597824        1      -0.00554406      -0.00422642       0.00363417
Cu       4.53260972      -0.20026151      20.32323807        1       0.00579061       0.00346715       0.00054079
Cu       7.08244747      -0.20369789      20.29018692        1      -0.00607516       0.00478518      -0.00006443
Cu       0.70667232       2.01420165      20.32540566        1      -0.00457275      -0.00262965      -0.00354680
Cu       3.25957364       2.01374342      20.32875943        1       0.00120566      -0.00310459      -0.00146735
Cu       5.80531326       2.01490432      20.29908048        1      -0.00575617      -0.00160743      -0.00445165
Cu       8.36010063       2.02362410      20.24791981        1      -0.00506338      -0.00374179       0.00290413
Cu       1.98504368       4.22191736      20.32927214        1      -0.00171149       0.00392860      -0.00257509
Cu       4.53912405       4.22607580      20.32694309        1       0.00295268      -0.00102207      -0.00116588
Cu       7.09026649       4.23151413      20.30835116        1      -0.00540178      -0.00057601       0.00726530
Cu       9.64252117       4.22838158      20.31143162        1       0.00525246      -0.00054228      -0.00073938
Cu       3.26052614       6.43512813      20.32948068        1       0.00748084      -0.00242901       0.00142358
Cu       5.81422502       6.43833146      20.32785426        1       0.00437192       0.00013251      -0.00138611
Cu       8.36827442       6.43572635      20.32370250        1      -0.00358343      -0.00063612      -0.00032709
Cu      10.91688326       6.43157237      20.32727502        1       0.00030664       0.00046339      -0.00854739
O       23.11773159      10.37048161      23.75440869        0       0.02503174      -0.01385267      -0.00779679
C       24.15954355       9.95933704      23.38642062        0       0.00762506      -0.00236797       0.00707435
O       25.20725215       9.54496232      23.03922490        0      -0.03914686       0.01887634       0.00642320
