99
Lattice="10.210621920333747 0.0 0.0 5.105310960166873 8.842657971447272 0.0 0.0 0.0 30.421172358872745" Properties=species:S:1:pos:R:3:tags:I:1:forces:R:3 energy=-440.025390625 free_energy=-440.025390625 stress="0.01678411290049553 4.0512531995773315e-06 3.045424818992615e-07 4.0512531995773315e-06 0.016679367050528526 -4.288181662559509e-05 3.045424818992615e-07 -4.288181662559509e-05 0.01006418839097023" pbc="T T F"
Cu       0.73013215       0.55534163      10.09992780        6      -0.00006553       0.00034552      -0.00027243
Cu       3.28242258       0.55537515      10.09416133        6       0.00051275      -0.00041908       0.00138755
Cu       5.83707606       0.55370806      10.09450352        6      -0.00197205       0.00302052       0.00302065
Cu       8.39009733       0.55423784      10.10019235        6      -0.00279781       0.00185196       0.00056965
Cu       2.00711764       2.76638326      10.10014686        6      -0.00103077      -0.00038159      -0.00266043
Cu       4.55967279       2.76486648      10.09648961        6      -0.00017256       0.00234126       0.00319450
Cu       7.11263209       2.76503668      10.09750001        6      -0.00140689      -0.00032257       0.00251085
Cu       9.66517330       2.76595157      10.10089368        6       0.00025063      -0.00216276       0.00008057
Cu       3.28375741       4.97542553      10.09979969        6      -0.00021437       0.00161023       0.00033539
Cu       5.83590770       4.97555813      10.09783917        6      -0.00119422       0.00055439       0.00091540
Cu       8.38896016       4.97553539      10.09576434        6      -0.00253162       0.00070748       0.00257867
Cu      10.94199977       4.97629238      10.09832362        6       0.00044526      -0.00121745       0.00128013
Cu       4.55998342       7.18622765      10.09921466        6      -0.00108577       0.00057962       0.00026766
Cu       7.11184204       7.18701323      10.09479444        6      -0.00179895      -0.00157825       0.00214014
Cu       9.66558718       7.18612625      10.09388262        6      -0.00233993       0.00173123       0.00005702
Cu      12.21892965       7.18594199      10.09860634        6       0.00057621       0.00094966      -0.00012530
Cu      -0.54631097       1.28829135      12.16366315        5      -0.00076496       0.00104339      -0.00487817
Cu       2.00599889       1.28967147      12.15870466        5      -0.00168582      -0.00154579      -0.00141490
Cu       4.55745500       1.28688346      12.15474919        5      -0.00015825       0.00322716       0.00016592
Cu       7.11051002       1.28767163      12.15810937        5      -0.00039667       0.00212605      -0.00174926
Cu       0.73077665       3.49930912      12.16162115        5      -0.00164419       0.00033777      -0.00044649
Cu       3.28309841       3.49926603      12.16152413        5      -0.00107389       0.00147212      -0.00129966
Cu       5.83334407       3.49852481      12.15896337        5      -0.00013660       0.00148349      -0.00065888
Cu       8.38646952       3.49884660      12.15940222        5      -0.00074551      -0.00061905      -0.00269978
Cu       2.00747127       5.70927846      12.16174080        5      -0.00155394       0.00051027      -0.00131825
Cu       4.55850155       5.70944115      12.16092721        5       0.00043990      -0.00040086       0.00098764
Cu       7.11082609       5.70926558      12.15675330        5      -0.00329865      -0.00099136      -0.00068296
Cu       9.66374483       5.70914850      12.15573865        5      -0.00028428       0.00007323       0.00279097
Cu       3.28362870       7.91976480      12.16197148        5      -0.00078840       0.00089611      -0.00274325
Cu       5.83451515       7.91922573      12.15929423        5       0.00014804       0.00061950      -0.00267621
Cu       8.38686936       7.91958659      12.15239891        5      -0.00269108      -0.00070368       0.00229626
Cu      10.94037573       7.91923579      12.15519122        5      -0.00139113       0.00090729       0.00073273
Cu      -0.55275004      -0.20357756      14.20304388        4      -0.00272291       0.00048560      -0.00288536
Cu       1.99622574      -0.20011327      14.19245680        4      -0.00031655      -0.00268115       0.00165919
Cu       4.54435741      -0.20449980      14.18933831        4       0.00138077       0.00066824       0.00338643
Cu       7.09941307      -0.20315494      14.19426443        4       0.00017233      -0.00165673       0.00202800
Cu       0.72126809       2.00900539      14.20312336        4      -0.00101486       0.00028519      -0.00339075
Cu       3.27236224       2.00917872      14.19768096        4      -0.00067847      -0.00134639       0.00084951
Cu       5.81971586       2.00717627      14.19423549        4       0.00180835       0.00115991       0.00108877
Cu       8.37478351       2.00781136      14.19858888        4       0.00156765      -0.00077612      -0.00105952
Cu       1.99612982       4.21936067      14.20319536        4      -0.00070560      -0.00039836      -0.00005821
Cu       4.54770171       4.22166116      14.20292473        4      -0.00031629      -0.00235005      -0.00043216
Cu       7.09878200       4.21891461      14.19766201        4      -0.00037125      -0.00131676      -0.00081698
Cu       9.65233139       4.21928890      14.19564200        4       0.00124706      -0.00018320       0.00324920
Cu       3.27413603       6.43009229      14.20421313        4      -0.00165813      -0.00093111      -0.00203061
Cu       5.82554921       6.42875270      14.20014726        4      -0.00021593      -0.00046030      -0.00120983
Cu       8.37528797       6.42995167      14.19211625        4       0.00008208      -0.00136606       0.00061050
Cu      10.92848221       6.42935442      14.19475478        4       0.00070794      -0.00135850       0.00247981
Cu       0.71678651       0.53231013      16.22835915        3      -0.00197309      -0.00156968      -0.00053721
Cu       3.26163992       0.53389510      16.22402223        3      -0.00065954      -0.00218769       0.00035681
Cu       5.80828993       0.52936313      16.21800764        3       0.00141039       0.00040336      -0.00007356
Cu       8.36683981       0.52952305      16.22368022        3       0.00280183       0.00081622      -0.00134112
Cu       1.98612912       2.74579589      16.23294424        3       0.00127031      -0.00035924      -0.00199061
Cu       4.53510124       2.74446856      16.22838989        3       0.00175424       0.00048426      -0.00065594
Cu       7.08655394       2.74305899      16.22028988        3       0.00237504       0.00125356      -0.00128557
Cu       9.64508116       2.74468425      16.22525143        3      -0.00087336      -0.00191338      -0.00004731
Cu       3.26045604       4.95595850      16.23461473        3       0.00105991      -0.00146411       0.00025018
Cu       5.81579575       4.95613332      16.23114884        3      -0.00150993      -0.00056159      -0.00289846
Cu       8.36569643       4.95982224      16.22064155        3       0.00024750      -0.00262782       0.00066004
Cu      10.91812575       4.95743928      16.23074110        3       0.00175140      -0.00244914      -0.00305816
Cu       4.54166994       7.16317219      16.23122079        3       0.00013093       0.00032499      -0.00016341
Cu       7.09268213       7.16685953      16.22412517        3      -0.00011416       0.00025284       0.00144093
Cu       9.64162868       7.16502834      16.22060263        3      -0.00109144      -0.00101618       0.00068672
Cu      12.19486710       7.16383617      16.22805857        3       0.00098549      -0.00047670      -0.00018741
Cu      -0.56796264       1.27593608      18.25376928        2       0.00487489      -0.00170406      -0.00331600
Cu       1.98134514       1.28141626      18.26781862        2      -0.00239162       0.00032082      -0.00095410
Cu       4.52663261       1.27755170      18.25979312        2       0.00159046       0.00025754       0.00241908
Cu       7.07535319       1.27776628      18.24071926        2      -0.00145910      -0.00254267      -0.00012011
Cu       0.70364999       3.49099093      18.26529204        2       0.00106152       0.00167563       0.00362142
Cu       3.25741550       3.49087690      18.27057227        2       0.00073750       0.00457288      -0.00316949
Cu       5.80778073       3.49346014      18.25991628        2      -0.00030518       0.00023484       0.00209855
Cu       8.35852748       3.50002178      18.24657882        2       0.00280612       0.00231353      -0.00480660
Cu       1.97995906       5.70329470      18.27159168        2      -0.00073571      -0.00167868      -0.00318865
Cu       4.53386475       5.70245945      18.27027918        2       0.00075944       0.00017012      -0.00150048
Cu       7.08564648       5.70749903      18.26210470        2       0.00060368       0.00301888       0.00198470
Cu       9.63580963       5.70561037      18.26119361        2       0.00022368      -0.00022963       0.00373514
Cu       3.26019404       7.90960287      18.26159695        2       0.00065361       0.00161153      -0.00247219
Cu       5.81050272       7.91386846      18.26771950        2       0.00118576      -0.00067334       0.00018014
Cu       8.35774797       7.91478125      18.26408324        2       0.00198785      -0.00134490      -0.00141930
Cu      10.90428408       7.90934434      18.25603470        2       0.00497886      -0.00023060       0.00185135
Cu      -0.57571442      -0.19148784      20.32501799        1       0.00055743       0.00001942      -0.00121466
Cu       1.97899244      -0.19265543      20.32764225        1       0.00060982      -0.00219309      -0.00144564
Cu       4.52907995      -0.19642594      20.32137924        1      -0.00195696      -0.00192210      -0.00110038
Cu       7.07611021      -0.19887695      20.28918657        1       0.00409758       0.00230198      -0.00462497
Cu       0.69971405       2.01650510      20.32151818        1       0.00104296      -0.00042769       0.00283869
Cu       3.25413364       2.01549418      20.32520660        1       0.00234016      -0.00215858       0.00199394
Cu       5.79740118       2.01779989      20.29839006        1       0.00741045      -0.00071109      -0.00240371
Cu       8.35401275       2.02573472      20.25591311        1      -0.00095997      -0.00200960      -0.00187688
Cu       1.98124351       4.22536834      20.32619251        1      -0.00194466       0.00572735      -0.00091001
Cu       4.53458206       4.22847847      20.32362896        1       0.00292883       0.00170223       0.00340909
Cu       7.08606682       4.23352528      20.30749210        1      -0.00171023       0.00198772       0.00421137
Cu       9.63927840       4.22938748      20.30897978        1       0.00180481       0.00364401       0.00529675
Cu       3.25933704       6.43920569      20.32761116        1       0.00066680      -0.00297480       0.00265346
Cu       5.81201352       6.44020329      20.32405860        1      -0.00095401       0.00187436       0.00390522
Cu       8.36492715       6.43823405      20.32111133        1      -0.00124482       0.00101555       0.00018640
Cu      10.91425013       6.43628994      20.32253701        1      -0.00270785      -0.00556234       0.00050138
O       23.12393634      10.42039786      23.74579698        0       0.00456682      -0.01042600       0.00631454
C       24.11735783       9.85427304      23.45985930        0      -0.00020818       0.00792681      -0.00779901
O       25.11319968       9.28858375      23.18366569        0      -0.00659132       0.00367572      -0.00118518
