99
Lattice="10.210621920333747 0.0 0.0 5.105310960166873 8.842657971447272 0.0 0.0 0.0 30.421172358872745" Properties=species:S:1:pos:R:3:tags:I:1:forces:R:3 energy=-440.2632141113281 free_energy=-440.2632141113281 stress="0.018556013703346252 2.9439106583595276e-06 2.3888424038887024e-07 2.9439106583595276e-06 0.018470704555511475 -4.856567829847336e-05 2.3888424038887024e-07 -4.856567829847336e-05 0.010972041636705399" pbc="T T F"
Cu       1.27094879       0.74066595      10.09569689        6       0.00293388       0.00172854       0.00407518
Cu       3.82402669       0.74031136      10.09665606        6       0.00232557       0.00263803       0.00306070
Cu       6.37693876       0.74058742      10.09648296        6       0.00126303       0.00182409       0.00334158
Cu       8.92909409       0.74037327      10.09607744        6       0.00316388       0.00226516       0.00294549
Cu       2.54765296       2.95066507      10.09759350        6       0.00211032       0.00312278       0.00122803
Cu       5.10031452       2.95063572      10.09744675        6       0.00252840       0.00310541       0.00135490
Cu       7.65325382       2.95143498      10.09643250        6       0.00129001       0.00184362       0.00232095
Cu      10.20543498       2.95129903      10.09643758        6       0.00323633       0.00222454       0.00242417
Cu       3.82411880       5.16105769      10.09609530        6       0.00165002       0.00354846       0.00356907
Cu       6.37660386       5.16150087      10.09610581        6       0.00254767       0.00304478       0.00218241
Cu       8.92938525       5.16243500      10.09494993        6       0.00235624       0.00114788       0.00434457
Cu      11.48202808       5.16121325      10.09649055        6       0.00235027       0.00376683       0.00210719
Cu       5.10033359       7.37196640      10.09562973        6       0.00176838       0.00394507       0.00324508
Cu       7.65297748       7.37272681      10.09512502        6       0.00207041       0.00266397       0.00427181
Cu      10.20599164       7.37249617      10.09589385        6       0.00165804       0.00290567       0.00303263
Cu      12.75842867       7.37203525      10.09463462        6       0.00205074       0.00304743       0.00607470
Cu       0.00145391       1.47896958      12.15766280        5      -0.00082729       0.00335516      -0.00306563
Cu       2.55402110       1.47860479      12.15828221        5      -0.00069622       0.00400641      -0.00303217
Cu       5.10680807       1.47863911      12.15882059        5      -0.00147357       0.00300133      -0.00302861
Cu       7.65961255       1.47919553      12.15815132        5      -0.00165662       0.00189631      -0.00294538
Cu       1.27781131       3.68996722      12.15860910        5      -0.00116711       0.00258352      -0.00212661
Cu       3.83052389       3.68993086      12.15868451        5      -0.00198698       0.00234591      -0.00166882
Cu       6.38325885       3.68977754      12.15811999        5      -0.00143091       0.00319094      -0.00184054
Cu       8.93595282       3.69057279      12.15737881        5      -0.00039818       0.00190287      -0.00050122
Cu       2.55404414       5.90077305      12.15751301        5      -0.00116681       0.00256667       0.00112052
Cu       5.10684546       5.90054496      12.15744552        5      -0.00183877       0.00341725      -0.00028174
Cu       7.65974706       5.90070372      12.15678373        5      -0.00142901       0.00344389       0.00062311
Cu      10.21199214       5.90059173      12.15763671        5      -0.00023093       0.00302101       0.00140909
Cu       3.83014683       8.11083322      12.15718952        5      -0.00031400       0.00323103       0.00025603
Cu       6.38318925       8.11121142      12.15708397        5      -0.00161082       0.00277267      -0.00197330
Cu       8.93600252       8.11074400      12.15785969        5      -0.00101234       0.00380596      -0.00114218
Cu      11.48887554       8.11076655      12.15782273        5      -0.00215750       0.00309453       0.00025814
Cu      -0.00140869      -0.00159243      14.19540627        4      -0.00178157      -0.00314499       0.00134430
Cu       2.55099469      -0.00163070      14.19598846        4      -0.00152686      -0.00307858       0.00172480
Cu       5.10370621      -0.00214212      14.19705890        4      -0.00164723      -0.00318732       0.00273709
Cu       7.65629674      -0.00170509      14.19659370        4      -0.00167790      -0.00340611       0.00226099
Cu       1.27469192       2.20906151      14.19585149        4      -0.00159047      -0.00300163       0.00162045
Cu       3.82729489       2.20894365      14.19639748        4      -0.00183464      -0.00324836       0.00156532
Cu       6.38040581       2.20903475      14.19634918        4      -0.00185405      -0.00335915       0.00139448
Cu       8.93295112       2.20921833      14.19533029        4      -0.00138608      -0.00306725       0.00171973
Cu       2.55090048       4.42066735      14.19673828        4      -0.00186564      -0.00302645       0.00280316
Cu       5.10392707       4.42056749      14.19591753        4      -0.00189359      -0.00320003       0.00178442
Cu       7.65696472       4.42065573      14.19531538        4      -0.00150309      -0.00299407       0.00217859
Cu      10.20914424       4.42035995      14.19643147        4      -0.00127070      -0.00252687       0.00326427
Cu       3.82730353       6.63081079      14.19612641        4      -0.00194882      -0.00276284       0.00302283
Cu       6.38032653       6.63116492      14.19506241        4      -0.00150734      -0.00274864       0.00273546
Cu       8.93271493       6.63085652      14.19632674        4      -0.00095481      -0.00241795       0.00443807
Cu      11.48542760       6.63076377      14.19709133        4      -0.00186754      -0.00266572       0.00565699
Cu       1.27404395       0.73381883      16.22655985        3      -0.00114292      -0.00254536      -0.00575483
Cu       3.82480248       0.73198660      16.22853759        3      -0.00242070      -0.00284966      -0.00605053
Cu       6.37908533       0.73169317      16.22859629        3      -0.00179923      -0.00391947      -0.00643658
Cu       8.93324927       0.73299117      16.22640952        3      -0.00042929      -0.00291178      -0.00538229
Cu       2.54840078       2.94326642      16.22699356        3      -0.00244977      -0.00300629      -0.00470932
Cu       5.10179187       2.94285014      16.22465145        3      -0.00206941      -0.00344255      -0.00382843
Cu       7.65764590       2.94325917      16.22401362        3      -0.00064778      -0.00329312      -0.00385016
Cu      10.20931705       2.94368277      16.22613224        3      -0.00041886      -0.00269781      -0.00567300
Cu       3.82561605       5.15622194      16.22823935        3      -0.00202022      -0.00190481      -0.00481907
Cu       6.38027155       5.15706390      16.22451179        3      -0.00162830      -0.00181354      -0.00297571
Cu       8.93354513       5.15686443      16.22849148        3      -0.00135373      -0.00168979      -0.00545427
Cu      11.48389291       5.15594369      16.23210359        3      -0.00150212      -0.00241672      -0.00573935
Cu       5.10305062       7.36865978      16.22680338        3      -0.00160970      -0.00251890      -0.00246093
Cu       7.65631113       7.36861162      16.22866507        3      -0.00187354      -0.00237871      -0.00479688
Cu      10.20771407       7.36616997      16.23330627        3      -0.00139345      -0.00245104      -0.00545358
Cu      12.76031413       7.36651720      16.23199688        3      -0.00160546      -0.00257647      -0.00546523
Cu       0.00321188       1.47102726      18.26310025        2      -0.00436710       0.00374376       0.00149610
Cu       2.54551904       1.47058944      18.26589591        2       0.00270414       0.00479118      -0.00064918
Cu       5.09746324       1.46672476      18.25751070        2       0.00360167       0.00462400       0.00234515
Cu       7.66040254       1.46764245      18.25629718        2      -0.00359817       0.00596260       0.00349556
Cu       1.27167655       3.68082657      18.26607683        2       0.00382642       0.00449425       0.00137242
Cu       3.82008040       3.68115901      18.25382038        2       0.00535049       0.00323416       0.00480265
Cu       6.38106373       3.68246035      18.24341416        2      -0.00285000       0.00007695       0.00296489
Cu       8.93857233       3.68330701      18.25508586        2      -0.00522472       0.00068605       0.00373404
Cu       2.54929114       5.89783560      18.26790588        2       0.00174729      -0.00138090       0.00229419
Cu       5.10306435       5.90420628      18.25560044        2      -0.00070170      -0.00888080       0.00542953
Cu       7.65746841       5.90306119      18.25890204        2      -0.00145461      -0.00566735       0.00071139
Cu      10.20905526       5.89705153      18.27172166        2      -0.00154904      -0.00132787       0.00126213
Cu       3.82897926       8.11065919      18.26779319        2      -0.00079140      -0.00350158       0.00380104
Cu       6.38046330       8.11107536      18.26657023        2      -0.00302235      -0.00283848       0.00126841
Cu       8.93074498       8.10728797      18.27286982        2      -0.00045739      -0.00009465       0.00132561
Cu      11.48452937       8.10615534      18.27275090        2       0.00067305       0.00133666       0.00064325
Cu       0.00752688      -0.00498155      20.32947875        1       0.00025411      -0.00022333      -0.00350204
Cu       2.55817170      -0.00638726      20.33433344        1       0.00014556       0.00226993      -0.00376611
Cu       5.10967689      -0.00868382      20.32932410        1       0.00176197       0.00182267      -0.00024753
Cu       7.66380996      -0.00623090      20.32688803        1       0.00148572      -0.00390784      -0.00426995
Cu       1.28191399       2.20330019      20.32877689        1       0.00110543       0.00064517      -0.00403026
Cu       3.82961264       2.20045430      20.30675258        1      -0.00161902      -0.00396754      -0.00270278
Cu       6.38331709       2.20059096      20.28287776        1       0.00147257      -0.00624742      -0.00309906
Cu       8.94492579       2.20214503      20.30100929        1       0.00291983      -0.00066813      -0.00158820
Cu       2.55390953       4.41626224      20.31080408        1      -0.00342299      -0.00032793      -0.00080370
Cu       5.10862603       4.42231634      20.27356494        1       0.00118708      -0.00260293      -0.00054100
Cu       7.66845217       4.42155716      20.28441074        1       0.00311752       0.00198962      -0.00458219
Cu      10.21882194       4.41509607      20.32106390        1       0.00276973       0.00276153      -0.00206950
Cu       3.83505627       6.63284774      20.31608642        1      -0.00077728       0.00394209      -0.00097711
Cu       6.39046593       6.63210581      20.31253810        1       0.00144253       0.00098119      -0.00363012
Cu       8.94171881       6.62635684      20.32891258        1      -0.00023410      -0.00051780      -0.00011886
Cu      11.49305059       6.62758854      20.33158049        1       0.00194651      -0.00016773      -0.00427997
O        5.10348356       4.13857191      23.48118535        0       0.01790600      -0.00098518       0.00107301
C        6.18853052       3.67606075      23.46217558        0      -0.00318825       0.00325727       0.00799515
O        7.27165700       3.21012948      23.47591987        0       0.01240854      -0.00352111       0.00180413
