99
Lattice="10.210621920333747 0.0 0.0 5.105310960166873 8.842657971447272 0.0 0.0 0.0 30.421172358872745" Properties=species:S:1:pos:R:3:tags:I:1:forces:R:3 energy=-440.03253173828125 free_energy=-440.03253173828125 stress="0.01676846295595169 4.024244844913483e-06 3.655441105365753e-07 4.024244844913483e-06 0.016660816967487335 -4.307366907596588e-05 3.655441105365753e-07 -4.307366907596588e-05 0.010020015761256218" pbc="T T F"
Cu       0.73623724       0.55544687      10.09707089        6      -0.00390728       0.00068109       0.00105324
Cu       3.28788816       0.55541675      10.09593068        6      -0.00078633       0.00119073       0.00431651
Cu       5.84037979       0.55605859      10.09834606        6      -0.00055398      -0.00193022      -0.00050062
Cu       8.39300614       0.55496900      10.09866683        6       0.00104268       0.00258985       0.00132530
Cu       2.01177555       2.76576866      10.10338437        6      -0.00152336       0.00362985      -0.00652488
Cu       4.56393163       2.76556544      10.10018320        6      -0.00281586       0.00149746      -0.00198768
Cu       7.11701860       2.76548290      10.09937738        6      -0.00011507       0.00078193      -0.00111808
Cu       9.67052683       2.76534041      10.10057576        6      -0.00186046       0.00215404      -0.00097741
Cu       3.28887427       4.97659218      10.09989899        6      -0.00526940      -0.00119383       0.00038284
Cu       5.84024169       4.97590380      10.09627012        6       0.00064711       0.00017257       0.00150154
Cu       8.39379114       4.97506593      10.09579973        6       0.00052842       0.00375304       0.00315673
Cu      10.94689604       4.97704517      10.10146398        6      -0.00170257      -0.00391928      -0.00633496
Cu       4.56492723       7.18704712      10.09762496        6      -0.00339891       0.00009480      -0.00373456
Cu       7.11702593       7.18688768      10.09280488        6       0.00114065      -0.00020343       0.00524193
Cu       9.67021850       7.18739194      10.09592655        6      -0.00373795      -0.00144577      -0.00048799
Cu      12.22293198       7.18749742      10.09918370        6      -0.00079956      -0.00069880      -0.00267325
Cu      -0.54141088       1.28774199      12.15973764        5      -0.00418387       0.00079390      -0.00073138
Cu       2.00919022       1.28835097      12.16034510        5      -0.00177374       0.00204902      -0.00309027
Cu       4.56076161       1.28855368      12.15996446        5      -0.00279876       0.00006555      -0.00854724
Cu       7.11389767       1.28893322      12.16002559        5       0.00233701      -0.00114430      -0.00866652
Cu       0.73274918       3.49979885      12.16395916        5       0.00050196      -0.00098495      -0.00602694
Cu       3.28519876       3.49923852      12.16301817        5      -0.00269266       0.00380276      -0.00721003
Cu       5.83757510       3.49846709      12.15943896        5      -0.00033360       0.00450953      -0.00574973
Cu       8.39191394       3.49891295      12.15997483        5      -0.00274286       0.00273675      -0.00454754
Cu       2.00954339       5.70990073      12.16091773        5       0.00202502       0.00163154      -0.00082257
Cu       4.56308184       5.70934781      12.15891215        5      -0.00231301      -0.00061469      -0.00688762
Cu       7.11543007       5.70941795      12.15436677        5      -0.00226330      -0.00032976      -0.00009285
Cu       9.66821216       5.71032511      12.15750273        5      -0.00643587      -0.00095235       0.00067666
Cu       3.28820786       7.92059837      12.15855083        5      -0.00579782      -0.00207205      -0.00105130
Cu       5.83871013       7.92014251      12.15537064        5       0.00243501      -0.00177147       0.00046585
Cu       8.39021730       7.92138892      12.15495897        5      -0.00333187      -0.00368641      -0.00262687
Cu      10.94305395       7.92026617      12.15643157        5      -0.00025922      -0.00064711       0.00246024
Cu      -0.55097703      -0.20560896      14.19735632        4      -0.00172728       0.00077865       0.00107528
Cu       1.99367958      -0.20035042      14.19504014        4       0.00751961       0.00075939       0.00131991
Cu       4.54558127      -0.20278821      14.19227567        4       0.00197915       0.00038450       0.00219566
Cu       7.10319441      -0.20383077      14.19094673        4       0.00134218      -0.00006465       0.00604097
Cu       0.71940826       2.00972180      14.20199534        4       0.00209035       0.00088363      -0.00114231
Cu       3.27112521       2.01204166      14.19957632        4      -0.00020321      -0.00232873       0.00105067
Cu       5.82361234       2.00945225      14.19643702        4       0.00070006      -0.00160352       0.00052266
Cu       8.38060842       2.00780952      14.19622241        4      -0.00050192      -0.00166769       0.00148056
Cu       1.99497949       4.22113051      14.20389364        4       0.00165245       0.00022922       0.00000130
Cu       4.54805292       4.22088435      14.19937217        4       0.00091173      -0.00088769       0.00197203
Cu       7.09978909       4.21974444      14.19511909        4       0.00248711       0.00193145       0.00097385
Cu       9.65347825       4.22118815      14.19978804        4       0.00059341      -0.00053006       0.00094957
Cu       3.27775257       6.42799667      14.19745418        4      -0.00212396       0.00130763       0.00340461
Cu       5.82693660       6.42951374      14.19436003        4       0.00068560      -0.00133335       0.00232639
Cu       8.37567362       6.43133765      14.19142287        4       0.00139386      -0.00027792       0.00289229
Cu      10.93038959       6.42913734      14.19635609        4       0.00107905       0.00163083       0.00210209
Cu       0.71621163       0.53533154      16.22808235        3      -0.00009231      -0.00166430      -0.00002588
Cu       3.26240868       0.53737451      16.22272989        3       0.00043686      -0.00168543       0.00254959
Cu       5.81553060       0.53087794      16.21483315        3      -0.00069887      -0.00054519       0.00187494
Cu       8.37552902       0.53051931      16.22049074        3      -0.00317987       0.00155690      -0.00247144
Cu       1.98589352       2.74882965      16.23261689        3       0.00357805       0.00036106       0.00029305
Cu       4.53905208       2.74824545      16.22595830        3      -0.00009942      -0.00189698       0.00237215
Cu       7.09245871       2.74794823      16.21860835        3      -0.00033837      -0.00243460       0.00087131
Cu       9.64532456       2.74787342      16.22783744        3       0.00386752       0.00094676      -0.00662777
Cu       3.26367129       4.95887639      16.23337619        3       0.00074858      -0.00211677      -0.00022361
Cu       5.81600610       4.95996331      16.22810433        3       0.00056013      -0.00220091      -0.00285648
Cu       8.36663142       4.96218606      16.22165123        3       0.00121179       0.00031593      -0.00161254
Cu      10.92136834       4.96046958      16.23236074        3      -0.00016773      -0.00265492      -0.00067655
Cu       4.54608305       7.16451206      16.22963217        3      -0.00194531       0.00235765      -0.00522298
Cu       7.09210984       7.16954910      16.22437139        3       0.00275859       0.00194747       0.00027228
Cu       9.64152097       7.16736681      16.22130630        3       0.00068206       0.00096815       0.00051474
Cu      12.19920338       7.16485658      16.22355391        3       0.00100437       0.00050733       0.00148561
Cu      -0.56368932       1.28066400      18.25258873        2       0.00553812      -0.00751190       0.00192107
Cu       1.98474167       1.28645510      18.26760484        2      -0.00112958      -0.00137885      -0.00121350
Cu       4.53184904       1.28147075      18.25642949        2      -0.00231044      -0.00223494       0.00293312
Cu       7.07996380       1.28092700      18.23632424        2       0.00073584       0.00185345      -0.00177320
Cu       0.70591615       3.49629045      18.26815641        2       0.00499330      -0.00231211      -0.00101464
Cu       3.26184012       3.49733480      18.27030155        2      -0.00134303      -0.00674730      -0.00886254
Cu       5.81217768       3.49840765      18.25865890        2      -0.00231219      -0.00293891      -0.00654392
Cu       8.36349573       3.50586273      18.24574950        2      -0.00575642      -0.00123307       0.00837397
Cu       1.98322491       5.70682613      18.27001508        2      -0.00119819       0.00292524      -0.00317970
Cu       4.53871508       5.70631122      18.26999193        2      -0.00354864      -0.00017202      -0.00096412
Cu       7.08715195       5.71268136      18.26076816        2       0.00199085       0.00065631       0.00732630
Cu       9.63720319       5.70950204      18.26176411        2       0.00622931       0.00146582       0.00696373
Cu       3.26317995       7.91343714      18.25633727        2       0.00556420      -0.00286397       0.01274273
Cu       5.81349469       7.91706647      18.26837887        2       0.00212053       0.00574117      -0.00030218
Cu       8.36146394       7.91985679      18.26308660        2      -0.00034634      -0.00085210       0.00077593
Cu      10.90963154       7.91284520      18.25378218        2      -0.00365299      -0.00372904       0.00214543
Cu      -0.57271201      -0.18711761      20.32388042        1      -0.00133685      -0.00305906      -0.00225616
Cu       1.98195272      -0.18814888      20.32823072        1       0.00365817       0.00110871      -0.00471249
Cu       4.53272308      -0.19427499      20.32081108        1       0.00016561       0.00543169      -0.00817159
Cu       7.07988366      -0.19465680      20.28411698        1       0.00496375      -0.00357272      -0.00225588
Cu       0.70283601       2.01943836      20.32252907        1       0.00885304       0.00555865       0.00058622
Cu       3.26066434       2.01958123      20.32200375        1      -0.00485665      -0.00187540       0.00545464
Cu       5.80449655       2.02178043      20.29300880        1      -0.00205867      -0.00229926       0.00333838
Cu       8.35925306       2.02864200      20.25113457        1      -0.00059740       0.00378289       0.01497314
Cu       1.98450703       4.23094831      20.32448817        1       0.00054996      -0.00431549       0.00568185
Cu       4.53925218       4.23229832      20.32538412        1      -0.00068121       0.00168766      -0.00128183
Cu       7.08784680       4.23858474      20.30498474        1       0.00909157      -0.00040734       0.00488143
Cu       9.64108811       4.23346677      20.31361542        1       0.00330299       0.00205823       0.00004785
Cu       3.26270823       6.44181994      20.32446949        1      -0.00191941       0.00536588       0.00455318
Cu       5.81419983       6.44557916      20.32685727        1       0.00160206      -0.00059073      -0.00055592
Cu       8.36687078       6.44316822      20.31923749        1       0.00087659      -0.00140527       0.00560838
Cu      10.91689264       6.43908373      20.32235879        1      -0.00175675      -0.00040168      -0.00299550
O       23.03866510      10.40249411      23.72186486        0       0.00427796      -0.00150536       0.01145720
C       24.01480911       9.78814379      23.47948725        0      -0.00157829      -0.00237379      -0.01164546
O       24.98980229       9.16984208      23.24497999        0      -0.00359269       0.01263641       0.00009266
