99
Lattice="10.210621920333747 0.0 0.0 5.105310960166873 8.842657971447272 0.0 0.0 0.0 30.421172358872745" Properties=species:S:1:pos:R:3:tags:I:1:forces:R:3 energy=-439.60211181640625 free_energy=-439.60211181640625 stress="0.030974147841334343 5.304347723722458e-06 7.59027898311615e-07 5.304347723722458e-06 0.030728112906217575 -4.755659028887749e-05 7.59027898311615e-07 -4.755659028887749e-05 0.022944379597902298" pbc="T T F"
Cu       1.27632774       0.73688816      10.00000000        6      -0.00571569       0.00320897       0.09748434
Cu       3.82898322       0.73688816      10.00000000        6      -0.00718207       0.00148725       0.09623174
Cu       6.38163870       0.73688816      10.00000000        6      -0.00467398       0.00680815       0.09995113
Cu       8.93429418       0.73688816      10.00000000        6      -0.00944242       0.00268614       0.09907801
Cu       2.55265548       2.94755266      10.00000000        6      -0.00293593       0.00096338       0.08863939
Cu       5.10531096       2.94755266      10.00000000        6      -0.00462222       0.00085318       0.10103693
Cu       7.65796644       2.94755266      10.00000000        6      -0.00184399       0.00153040       0.09240570
Cu      10.21062192       2.94755266      10.00000000        6      -0.00193991       0.00430177       0.08847211
Cu       3.82898322       5.15821715      10.00000000        6      -0.00468810      -0.00168226       0.09447294
Cu       6.38163870       5.15821715      10.00000000        6      -0.00807535      -0.00360708       0.09708388
Cu       8.93429418       5.15821715      10.00000000        6      -0.00586631      -0.00210399       0.09759241
Cu      11.48694966       5.15821715      10.00000000        6      -0.00512846      -0.00371246       0.10283594
Cu       5.10531096       7.36888164      10.00000000        6      -0.00514911       0.00451254       0.08783152
Cu       7.65796644       7.36888164      10.00000000        6      -0.00186683       0.00458346       0.08960664
Cu      10.21062192       7.36888164      10.00000000        6      -0.00210209       0.00685167       0.09067570
Cu      12.76327740       7.36888164      10.00000000        6      -0.00708276       0.00151874       0.09041063
Cu      -0.00000000       1.47377633      12.08423447        5       0.00299474       0.00320312       0.09364651
Cu       2.55265548       1.47377633      12.08423447        5       0.00408485       0.00270362       0.09205253
Cu       5.10531096       1.47377633      12.08423447        5       0.00350765       0.00148945       0.09190962
Cu       7.65796644       1.47377633      12.08423447        5       0.00293616       0.00216018       0.09181352
Cu       1.27632774       3.68444082      12.08423447        5       0.00286192       0.00115157       0.09446437
Cu       3.82898322       3.68444082      12.08423447        5       0.00241511       0.00056431       0.09613039
Cu       6.38163870       3.68444082      12.08423447        5       0.00326759       0.00025474       0.09697925
Cu       8.93429418       3.68444082      12.08423447        5       0.00364837       0.00056609       0.09413186
Cu       2.55265548       5.89510531      12.08423447        5       0.00312103       0.00261377       0.09516313
Cu       5.10531096       5.89510531      12.08423447        5       0.00283830       0.00285440       0.09436566
Cu       7.65796644       5.89510531      12.08423447        5       0.00377801       0.00244590       0.09575069
Cu      10.21062192       5.89510531      12.08423447        5       0.00365157       0.00231763       0.09490768
Cu       3.82898322       8.10576981      12.08423447        5       0.00273735       0.00360316       0.09249588
Cu       6.38163870       8.10576981      12.08423447        5       0.00334857       0.00321404       0.09281770
Cu       8.93429418       8.10576981      12.08423447        5       0.00360954       0.00356526       0.09090835
Cu      11.48694966       8.10576981      12.08423447        5       0.00270817       0.00313347       0.09107552
Cu       0.00000000       0.00000000      14.16846894        4      -0.00127782       0.00125930       0.02058666
Cu       2.55265548       0.00000000      14.16846894        4      -0.00139372       0.00129686       0.02017412
Cu       5.10531096       0.00000000      14.16846894        4      -0.00159282       0.00100906       0.01977194
Cu       7.65796644       0.00000000      14.16846894        4      -0.00100977       0.00072611       0.01949284
Cu       1.27632774       2.21066449      14.16846894        4      -0.00133607       0.00101272       0.02052592
Cu       3.82898322       2.21066449      14.16846894        4      -0.00147331       0.00105289       0.02060157
Cu       6.38163870       2.21066449      14.16846894        4      -0.00160106       0.00089146       0.02094292
Cu       8.93429418       2.21066449      14.16846894        4      -0.00139886       0.00120497       0.02001103
Cu       2.55265548       4.42132899      14.16846894        4      -0.00132295       0.00179752       0.02024123
Cu       5.10531096       4.42132899      14.16846894        4      -0.00142457       0.00258281       0.02081867
Cu       7.65796644       4.42132899      14.16846894        4      -0.00105736       0.00225756       0.02069788
Cu      10.21062192       4.42132899      14.16846894        4      -0.00137739       0.00134385       0.01986704
Cu       3.82898322       6.63199348      14.16846894        4      -0.00084484       0.00156513       0.01964564
Cu       6.38163870       6.63199348      14.16846894        4      -0.00156528       0.00164361       0.01999186
Cu       8.93429418       6.63199348      14.16846894        4      -0.00178556       0.00190369       0.02032130
Cu      11.48694966       6.63199348      14.16846894        4      -0.00084905       0.00157341       0.01997607
Cu       1.27632774       0.73688816      16.25270342        3       0.00016356      -0.00170022      -0.01020242
Cu       3.82898322       0.73688816      16.25270342        3      -0.00059926      -0.00210902      -0.00832558
Cu       6.38163870       0.73688816      16.25270342        3       0.00003018      -0.00177147      -0.00832577
Cu       8.93429418       0.73688816      16.25270342        3       0.00036538      -0.00171147      -0.00804418
Cu       2.55265548       2.94755266      16.25270342        3       0.00001196      -0.00140102      -0.00564637
Cu       5.10531096       2.94755266      16.25270342        3       0.00000075      -0.00070081      -0.00281081
Cu       7.65796644       2.94755266      16.25270342        3      -0.00012897      -0.00093640      -0.00449507
Cu      10.21062192       2.94755266      16.25270342        3       0.00025497      -0.00173484      -0.00827630
Cu       3.82898322       5.15821715      16.25270342        3       0.00008198      -0.00147085      -0.00558820
Cu       6.38163870       5.15821715      16.25270342        3       0.00013073      -0.00138883      -0.00461022
Cu       8.93429418       5.15821715      16.25270342        3       0.00024118      -0.00127663      -0.00780918
Cu      11.48694966       5.15821715      16.25270342        3      -0.00013449      -0.00177900      -0.00768613
Cu       5.10531096       7.36888164      16.25270342        3       0.00002929      -0.00134039      -0.00655462
Cu       7.65796644       7.36888164      16.25270342        3       0.00035387      -0.00124633      -0.00763247
Cu      10.21062192       7.36888164      16.25270342        3      -0.00015558      -0.00141376      -0.00646201
Cu      12.76327740       7.36888164      16.25270342        3       0.00018044      -0.00126209      -0.00644047
Cu      -0.00000000       1.47377633      18.33693789        2      -0.00061111       0.00185223      -0.09440398
Cu       2.55265548       1.47377633      18.33693789        2      -0.00029674       0.00405165      -0.10045381
Cu       5.10531096       1.47377633      18.33693789        2      -0.00072999       0.00732002      -0.08852895
Cu       7.65796644       1.47377633      18.33693789        2      -0.00144995       0.00500839      -0.08842333
Cu       1.27632774       3.68444082      18.33693789        2      -0.00090264      -0.00360082      -0.09346962
Cu       3.82898322       3.68444082      18.33693789        2       0.00202025       0.00178843      -0.09004201
Cu       6.38163870       3.68444082      18.33693789        2      -0.00645543      -0.00027874      -0.09516708
Cu       8.93429418       3.68444082      18.33693789        2      -0.00331171      -0.00093189      -0.08959166
Cu       2.55265548       5.89510531      18.33693789        2       0.00260546      -0.00307225      -0.09518977
Cu       5.10531096       5.89510531      18.33693789        2      -0.00116144      -0.00497236      -0.08587141
Cu       7.65796644       5.89510531      18.33693789        2      -0.00411847      -0.00007863      -0.08698552
Cu      10.21062192       5.89510531      18.33693789        2      -0.00477936      -0.00190678      -0.09331731
Cu       3.82898322       8.10576981      18.33693789        2       0.00205603       0.00498991      -0.09353397
Cu       6.38163870       8.10576981      18.33693789        2      -0.00185230       0.00145166      -0.10272072
Cu       8.93429418       8.10576981      18.33693789        2      -0.00109928       0.00332766      -0.09175593
Cu      11.48694966       8.10576981      18.33693789        2      -0.00019475       0.00691909      -0.09047557
Cu       0.00000000       0.00000000      20.42117236        1       0.01344726      -0.01082745      -0.08085767
Cu       2.55265548       0.00000000      20.42117236        1       0.00890003      -0.01146554      -0.07849452
Cu       5.10531096       0.00000000      20.42117236        1       0.00737290      -0.02487055      -0.08368833
Cu       7.65796644       0.00000000      20.42117236        1       0.00233227      -0.02142323      -0.08769744
Cu       1.27632774       2.21066449      20.42117236        1       0.00892157      -0.01768408      -0.08650080
Cu       3.82898322       2.21066449      20.42117236        1      -0.01698178      -0.03542302      -0.12002262
Cu       6.38163870       2.21066449      20.42117236        1       0.00029674      -0.04099196      -0.18670215
Cu       8.93429418       2.21066449      20.42117236        1       0.03457610      -0.01560309      -0.14331627
Cu       2.55265548       4.42132899      20.42117236        1      -0.02617821      -0.00275512      -0.11816199
Cu       5.10531096       4.42132899      20.42117236        1      -0.00748075       0.03166297      -0.22925805
Cu       7.65796644       4.42132899      20.42117236        1       0.03918482       0.03389198      -0.17779128
Cu      10.21062192       4.42132899      20.42117236        1       0.01900550      -0.00112742      -0.10046770
Cu       3.82898322       6.63199348      20.42117236        1      -0.00235679       0.01974600      -0.10559158
Cu       6.38163870       6.63199348      20.42117236        1       0.02023242       0.01479518      -0.10544676
Cu       8.93429418       6.63199348      20.42117236        1       0.00857336      -0.00489865      -0.08520550
Cu      11.48694966       6.63199348      20.42117236        1      -0.00016747      -0.00209549      -0.08241785
O        5.03122114       4.16051787      23.42117236        0       3.81238413      -1.63018858       0.10077958
C        6.16891743       3.67369588      23.42117236        0       0.01337113      -0.02095969      -0.11394742
O        7.30661366       3.18687388      23.42117236        0      -3.86786151       1.65442729       0.13754384
