99
Lattice="10.210621920333747 0.0 0.0 5.105310960166873 8.842657971447272 0.0 0.0 0.0 30.421172358872745" Properties=species:S:1:pos:R:3:tags:I:1:forces:R:3 energy=-440.2703857421875 free_energy=-440.2703857421875 stress="0.019242798909544945 2.3851171135902405e-06 5.541369318962097e-07 2.3851171135902405e-06 0.019142337143421173 -5.273846909403801e-05 5.541369318962097e-07 -5.273846909403801e-05 0.01103279460221529" pbc="T T F"
Cu       0.78949936       0.60879856      10.10256337        6      -0.00874005      -0.01535192      -0.02936301
Cu       3.33736547       0.60103269      10.11763814        6       0.04096218       0.01805893      -0.05849063
Cu       5.90516856       0.60025978      10.08694332        6      -0.05303970       0.02178671       0.01805422
Cu       8.44913344       0.60334329      10.09594655        6       0.00424953       0.00010386      -0.01849624
Cu       2.06484809       2.82197642      10.08286229        6      -0.00058286      -0.02381960       0.03857157
Cu       4.62214327       2.82077026      10.09729007        6      -0.00368835      -0.02923478      -0.00393982
Cu       7.17610901       2.81929266      10.08609983        6      -0.01203227      -0.00666304       0.03103766
Cu       9.71950999       2.82472330      10.08601928        6       0.00634964      -0.03264491       0.00579528
Cu       3.34111456       5.02956338      10.08340830        6       0.00262477      -0.00539111       0.03040257
Cu       5.90163194       5.02666925      10.11978080        6      -0.00698721      -0.00144827      -0.05527549
Cu       8.45231621       5.04015027      10.09138851        6      -0.03982558      -0.04522788       0.02899138
Cu      10.99449430       5.02508231      10.08978452        6       0.02216182       0.00019568       0.00242663
Cu       4.62182687       7.23441891      10.10976481        6      -0.00286669       0.00952671      -0.04361730
Cu       7.17632613       7.23953218      10.13056123        6      -0.02287885      -0.01173981      -0.07243253
Cu       9.72900616       7.23212766      10.10653369        6      -0.02479427       0.03494472      -0.01930797
Cu      12.27017098       7.23480099      10.08421845        6       0.02750922      -0.00750266       0.01861959
Cu      -0.48566838       1.34042778      12.14707322        5      -0.01637202      -0.00469973      -0.00981429
Cu       2.05626479       1.33203624      12.15676953        5       0.04616055       0.02597110      -0.00696241
Cu       4.62166596       1.33162498      12.14739608        5      -0.00455965       0.01581226       0.00424317
Cu       7.17464044       1.33592917      12.15113283        5       0.00228178      -0.00381923      -0.01583536
Cu       0.77866588       3.54604068      12.14878761        5       0.04255649      -0.00299216       0.00286921
Cu       3.33941250       3.55189391      12.14710248        5       0.00645912      -0.03283995       0.00298743
Cu       5.90224453       3.54096323      12.16105428        5      -0.01093463       0.00358222      -0.01560504
Cu       8.45482610       3.55415921      12.15145388        5      -0.02394236      -0.02821658      -0.01568757
Cu       2.05506158       5.75521270      12.14727501        5       0.02610868      -0.00104696      -0.00347432
Cu       4.61958002       5.76046697      12.15683596        5      -0.00832435      -0.02891683      -0.00763966
Cu       7.17208310       5.75412133      12.17424869        5       0.02558846       0.00362008      -0.05631327
Cu       9.72034265       5.75578391      12.15818556        5       0.00664787       0.00255620       0.00625409
Cu       3.33371921       7.95934292      12.14496324        5       0.01674646       0.02517817       0.01630751
Cu       5.89391888       7.97143561      12.16957790        5       0.00986068      -0.01868312      -0.05265072
Cu       8.44951330       7.96423276      12.17197622        5       0.00122207       0.00347680      -0.01989832
Cu      10.99756421       7.96731913      12.15460701        5       0.02070144       0.00055696      -0.00781539
Cu      -0.48130234      -0.14903238      14.17392163        4      -0.02237059      -0.04265644       0.09607493
Cu       2.07270213      -0.16938847      14.20955690        4      -0.01101661       0.05393126      -0.05425325
Cu       4.62217890      -0.16347091      14.19407063        4       0.03412105       0.02798885       0.04230857
Cu       7.17985073      -0.16592911      14.18989339        4      -0.01138911       0.02894556      -0.02435642
Cu       0.79693935       2.05402726      14.19247296        4      -0.00935067      -0.00224336       0.00875410
Cu       3.34004156       2.03841111      14.18573345        4       0.04320461       0.06256544       0.01159243
Cu       5.89063564       2.04309206      14.18377967        4       0.06597083       0.02211777       0.02034597
Cu       8.45467136       2.05044647      14.18397766        4      -0.01976682       0.01886386       0.02155345
Cu       2.06359237       4.26067128      14.18457291        4       0.00255259      -0.00131430       0.02358915
Cu       4.61648231       4.26556723      14.18987958        4       0.03983741      -0.03899861      -0.00701620
Cu       7.18917073       4.26321174      14.19621492        4      -0.06382076      -0.03141684       0.01935684
Cu       9.72507243       4.27121012      14.20438232        4       0.02278922      -0.03397885      -0.02248920
Cu       3.34242224       6.46782607      14.18294061        4       0.00842635       0.01693159       0.01161268
Cu       5.90634320       6.46957331      14.19731762        4      -0.05089847       0.00224228      -0.01016862
Cu       8.45448142       6.47493831      14.21444697        4       0.00817310      -0.02047681      -0.05320981
Cu      10.99404737       6.47256547      14.19797906        4       0.04798628       0.00205651      -0.00973227
Cu       0.79742227       0.56222763      16.22088905        3       0.00563523       0.04178813      -0.00020151
Cu       3.35420258       0.56658764      16.22790089        3       0.01034874       0.00037001       0.00172918
Cu       5.91845571       0.56065981      16.22300310        3      -0.03120503       0.03771017      -0.02104012
Cu       8.46039591       0.57402375      16.21238751        3       0.00504767      -0.00348589       0.00316768
Cu       2.08774110       2.77587491      16.21889054        3      -0.02867231       0.00914847      -0.00143322
Cu       4.65234130       2.77009048      16.21029193        3      -0.09073672       0.03728468       0.04000304
Cu       7.17958826       2.78522049      16.21875222        3       0.01721633      -0.01766847       0.00530707
Cu       9.72814922       2.78068627      16.21849971        3       0.04257803       0.00143620       0.01838234
Cu       3.35534512       4.98709922      16.21198206        3       0.00848486      -0.00685797       0.00535501
Cu       5.90920963       4.99097714      16.22187741        3      -0.01306261      -0.01375384       0.01056164
Cu       8.45697537       4.99082826      16.24401210        3       0.01070820      -0.00524875      -0.03788121
Cu      11.01249231       4.99243645      16.23137357        3       0.00575150      -0.03108834      -0.04092175
Cu       4.63331774       7.20375346      16.20878896        3      -0.02000211      -0.00143299       0.00357538
Cu       7.17627511       7.19249360      16.22591453        3       0.02448362       0.02817902       0.05675040
Cu       9.72737256       7.20021606      16.23642267        3       0.05228746      -0.00314976      -0.04935812
Cu      12.29363544       7.20275913      16.21025627        3      -0.00339701      -0.00856293       0.00620908
Cu      -0.46036493       1.30629284      18.25470416        2      -0.00739224       0.00106325       0.04441271
Cu       2.08532457       1.30097254      18.25793740        2       0.00720089      -0.00279757       0.00799499
Cu       4.64178656       1.30814271      18.25537388        2       0.03286306       0.01182318      -0.04192564
Cu       7.20715042       1.31802694      18.25621989        2      -0.04139465      -0.00364751      -0.02270401
Cu       0.81324104       3.50531597      18.25844161        2       0.00543236       0.03403896      -0.00700113
Cu       3.36889011       3.51245995      18.24896216        2       0.02844174       0.02880608      -0.02996195
Cu       5.91519082       3.52266126      18.26910488        2       0.04529097      -0.00201716      -0.07145739
Cu       8.46911908       3.51939202      18.26508378        2       0.00252221       0.00636853       0.04191306
Cu       2.10149534       5.72873326      18.23939018        2      -0.01143350       0.00115880       0.07681379
Cu       4.64383291       5.73513741      18.25219940        2      -0.00979685      -0.01251616       0.01095141
Cu       7.18895088       5.72839510      18.27559665        2       0.03491629      -0.02032260       0.03782330
Cu       9.75414374       5.72224280      18.27136172        2      -0.03608784      -0.00511684       0.03187408
Cu       3.36886279       7.94342667      18.24343054        2       0.02521521      -0.00298684       0.02544836
Cu       5.91720497       7.92791012      18.25723019        2      -0.01601651       0.04308920      -0.00030703
Cu       8.47116568       7.92527813      18.26223728        2      -0.03392112       0.01100901       0.03144192
Cu      11.02678557       7.93319069      18.24388825        2       0.03003590       0.01138412       0.03735444
Cu      -0.42540899      -0.15710387      20.31990475        1      -0.08122787      -0.02757812      -0.00940681
Cu       2.09485087      -0.17923757      20.30041005        1       0.11102547       0.02766234       0.04860898
Cu       4.66733606      -0.16423949      20.26801139        1      -0.02897563      -0.02899226       0.05801686
Cu       7.23631590      -0.15042504      20.28135051        1      -0.04652606      -0.04478521      -0.01317719
Cu       0.83918607       2.04133976      20.32343207        1       0.00784006       0.00108781      -0.00460444
Cu       3.38474108       2.05160505      20.29378683        1       0.00609326      -0.01802573       0.01682255
Cu       5.95380398       2.05537329      20.31121722        1      -0.03683012      -0.03150549      -0.03397969
Cu       8.50260492       2.05184752      20.32201891        1       0.00513904      -0.03572233      -0.01092827
Cu       2.12519465       4.25591059      20.28557817        1      -0.00765369       0.01090195       0.07567187
Cu       4.68714832       4.26096872      20.29941867        1      -0.09358564       0.01627669       0.05237623
Cu       7.22944715       4.24736816      20.34870541        1      -0.01032124       0.04075119      -0.05654874
Cu       9.78381391       4.23901500      20.32584308        1      -0.03130283       0.03594868      -0.00408703
Cu       3.39127806       6.47852791      20.30003529        1      -0.00109645      -0.04029081       0.04133511
Cu       5.94421345       6.47025885      20.32404550        1      -0.01318790      -0.04367094       0.01647025
Cu       8.50093591       6.44836563      20.34564466        1      -0.02906892       0.03036790      -0.07965652
Cu      11.04918351       6.45249753      20.30118705        1       0.00836248       0.03907340      -0.03506125
O       20.34469677       9.42962544      23.56447780        0       0.09837117      -0.07372902       0.07640242
C       21.23097993       8.65205536      23.58333622        0       0.62759411      -0.56414992      -0.14938641
O       22.12300989       7.86520132      23.59072925        0      -0.68906683       0.61268371       0.07035410
