99
Lattice="10.210621920333747 0.0 0.0 5.105310960166873 8.842657971447272 0.0 0.0 0.0 30.421172358872745" Properties=species:S:1:pos:R:3:tags:I:1:forces:R:3 energy=-440.24267578125 free_energy=-440.24267578125 stress="0.02025621384382248 3.405846655368805e-06 1.434236764907837e-07 3.405846655368805e-06 0.020183339715003967 -4.9507711082696915e-05 1.434236764907837e-07 -4.9507711082696915e-05 0.012579772621393204" pbc="T T F"
Cu       1.19466387       0.71365132      10.09548120        6      -0.01112002      -0.01913772      -0.01273772
Cu       3.74514676       0.70069049      10.10689109        6      -0.02076879       0.00498753      -0.03765729
Cu       6.29832441       0.71181541      10.10040236        6      -0.00836620      -0.00775293      -0.02679572
Cu       8.85967211       0.71315097      10.10046611        6      -0.05339022      -0.01340296      -0.02763016
Cu       2.47510362       2.92895830      10.08130306        6      -0.02117624      -0.03182120       0.01012240
Cu       5.02258776       2.91538548      10.09434094        6      -0.01638521       0.00519099      -0.02816883
Cu       7.57368935       2.91917934      10.09724238        6      -0.00282906      -0.00171218      -0.03693183
Cu      10.13140045       2.92024111      10.08924313        6      -0.01784235       0.01623384      -0.00793629
Cu       3.74828945       5.13542671      10.06767872        6      -0.01884385      -0.00196532       0.02963735
Cu       6.29688496       5.12073719      10.09666108        6      -0.01478292       0.02303878      -0.03711618
Cu       8.85197841       5.13838303      10.07882141        6      -0.01798336      -0.03523767       0.02106489
Cu      11.40804903       5.13206362      10.08508396        6      -0.02248553      -0.00414589       0.00553324
Cu       5.01696625       7.34289632      10.08721809        6      -0.00092328      -0.00858346       0.00887392
Cu       7.57087681       7.33560902      10.10470833        6      -0.01495516       0.01320743      -0.02388727
Cu      10.13370061       7.33871179      10.11037984        6      -0.04544218       0.00773870      -0.04124158
Cu      12.67669214       7.35104396      10.07702765        6      -0.00259973      -0.01844742       0.03101998
Cu      -0.10825786       1.44125770      12.15217820        5       0.01501169      -0.00703137       0.05550161
Cu       2.44410871       1.44553110      12.14313453        5       0.00830613      -0.01449236       0.06676052
Cu       4.99454969       1.44413163      12.14747059        5       0.01348580       0.01087899       0.06805813
Cu       7.55448193       1.44449305      12.15365750        5      -0.02049793      -0.01504098       0.06941622
Cu       1.18185148       3.64746589      12.14489413        5      -0.01543871       0.02680744       0.02904111
Cu       3.73735067       3.66430193      12.13928793        5      -0.04479603      -0.03074856       0.04895875
Cu       6.27949027       3.65141680      12.15630367        5      -0.01588615      -0.01377609       0.02958017
Cu       8.82850158       3.64488447      12.14085755        5       0.03259162       0.02540825       0.05846743
Cu       2.45976694       5.86581750      12.13578502        5      -0.03546851       0.01180644       0.02390110
Cu       5.00553111       5.85459291      12.14480026        5      -0.01990645       0.04075722       0.04272475
Cu       7.54826653       5.84774774      12.14828985        5       0.02796713       0.04387885       0.02946552
Cu      10.10683530       5.85102071      12.14433704        5       0.01663995       0.01993173       0.04350308
Cu       3.71430529       8.06882782      12.15186651        5       0.02675557       0.02693418       0.03475599
Cu       6.26705113       8.06667123      12.15090693        5       0.01752880       0.03066956       0.04953006
Cu       8.82551549       8.06466804      12.16389856        5      -0.00218612       0.02713448      -0.01293226
Cu      11.38039619       8.07984291      12.15563517        5       0.01594037       0.00055223       0.01885542
Cu      -0.13047027      -0.04147340      14.20683489        4       0.03335335       0.01264659      -0.05906896
Cu       2.42904550      -0.04166165      14.20124600        4      -0.02732899       0.01922328      -0.05470192
Cu       4.97974039      -0.01874645      14.19369755        4      -0.00469488      -0.04419713       0.00822620
Cu       7.53548907      -0.02805139      14.21721051        4      -0.03762911      -0.00521514      -0.10843749
Cu       1.14636446       2.17589864      14.19520814        4       0.00087424      -0.00016844      -0.02604814
Cu       3.68577660       2.18008871      14.19352699        4       0.02728313      -0.00147126      -0.03881991
Cu       6.23932510       2.18459727      14.20437901        4       0.02689654      -0.04411656      -0.06084895
Cu       8.80399992       2.16904891      14.20426642        4       0.01338540       0.01310115      -0.04451597
Cu       2.43048668       4.40474783      14.18561056        4      -0.04479267      -0.04669929       0.00198563
Cu       4.96645586       4.38406365      14.21012871        4       0.04817261       0.00067964      -0.10771152
Cu       7.53916723       4.37616436      14.19484258        4      -0.01339714       0.00036550       0.00277571
Cu      10.08416563       4.38195031      14.18999755        4       0.02374112       0.01154272      -0.03273753
Cu       3.70930990       6.59669837      14.19865150        4      -0.01067973       0.01174142      -0.03620043
Cu       6.25666998       6.59053248      14.19886585        4      -0.00139673      -0.00446909      -0.02202169
Cu       8.80591563       6.58831922      14.18596600        4       0.04170670       0.00680752       0.03182979
Cu      11.37111768       6.60892713      14.18171587        4      -0.06059339      -0.02708875       0.03217978
Cu       1.14098613       0.70839976      16.22476231        3      -0.03047808      -0.03888413       0.04405006
Cu       3.68282830       0.70793132      16.23295593        3      -0.02061680       0.00056050      -0.03114758
Cu       6.22793804       0.70542838      16.24196084        3       0.00614341      -0.02633976      -0.05158799
Cu       8.79638813       0.69604203      16.24033891        3      -0.00488300      -0.00412551       0.00320228
Cu       2.40587229       2.93195987      16.21925410        3      -0.02095448      -0.03754799       0.05509591
Cu       4.94177905       2.90780903      16.23732150        3      -0.00186877      -0.00255527       0.00217056
Cu       7.50095703       2.89258872      16.22982638        3       0.02533498       0.05292745       0.01365103
Cu      10.06471497       2.91578289      16.22814433        3      -0.01233509      -0.03687364      -0.00507679
Cu       3.68088530       5.12728357      16.23636648        3      -0.02036653      -0.02095779       0.04928825
Cu       6.23466339       5.10219352      16.22164257        3       0.00285853       0.04782619       0.08608516
Cu       8.79462758       5.11324224      16.22726201        3      -0.08959894       0.00580072      -0.01808176
Cu      11.33139104       5.13738289      16.22216915        3       0.04567007      -0.02529343      -0.03222103
Cu       4.96236973       7.31999171      16.23690603        3       0.01874033       0.03157379       0.03076602
Cu       7.51546087       7.32336297      16.22696880        3      -0.04649582      -0.00528848      -0.00642680
Cu      10.05695871       7.34263570      16.21792069        3       0.03458657      -0.01310726      -0.07419504
Cu      12.62160813       7.33179863      16.23205099        3      -0.01010499       0.00250817       0.00104258
Cu      -0.15571259       1.43274460      18.26818162        2      -0.05112468       0.01864072       0.01238793
Cu       2.39373161       1.44826995      18.26990056        2      -0.01160976      -0.01472106       0.01737471
Cu       4.93205752       1.43186233      18.28811612        2      -0.00100325       0.02734231      -0.02295412
Cu       7.48648505       1.42053316      18.27401646        2       0.00264046       0.04495857       0.02437861
Cu       1.10173674       3.65601364      18.25335677        2       0.02219115      -0.02132761      -0.00644297
Cu       3.65452200       3.63993761      18.29277469        2       0.01057465       0.02193320      -0.09557126
Cu       6.19232789       3.62834833      18.27042539        2       0.05398339       0.05101605       0.01233650
Cu       8.74636037       3.63336907      18.25942994        2       0.01219393       0.02334756      -0.00928155
Cu       2.36657212       5.86401776      18.27374076        2       0.08050426      -0.00868139      -0.00454521
Cu       4.92221006       5.85007885      18.28909468        2       0.02574128       0.02175489      -0.04048079
Cu       7.46555375       5.85322089      18.26746587        2       0.01879824      -0.01845685      -0.01481648
Cu      10.02925803       5.87974255      18.24489399        2      -0.00486638      -0.08371276       0.06242152
Cu       3.65536580       8.06571797      18.28419253        2       0.01556429      -0.01043986      -0.01578662
Cu       6.21179827       8.06999846      18.27120154        2       0.00436587      -0.00436210       0.00333713
Cu       8.75999734       8.06954887      18.25079274        2      -0.02146516       0.04182982       0.10217843
Cu      11.31018132       8.06315263      18.26149832        2       0.01793081       0.04337662       0.04932928
Cu      -0.18525680      -0.04100720      20.32924439        1      -0.00191122       0.00197304       0.01743700
Cu       2.36866525      -0.03622021      20.32721895        1       0.02303863      -0.01444030      -0.01087731
Cu       4.91708214      -0.03420100      20.31753977        1       0.00771936      -0.03409530       0.03670380
Cu       7.46039063      -0.04384126      20.33430904        1       0.03915266      -0.00231155       0.01366694
Cu       1.09643305       2.16435914      20.30862916        1      -0.01675927       0.01102909      -0.00527074
Cu       3.64948288       2.17039139      20.37160258        1       0.02011742      -0.02420667      -0.11291334
Cu       6.19767042       2.17309692      20.34519470        1       0.00426887      -0.02485236      -0.01067120
Cu       8.73955671       2.15976081      20.32277872        1       0.05496891       0.00719805      -0.00437302
Cu       2.38240484       4.38344195      20.30250805        1      -0.03153244       0.01140745       0.00450997
Cu       4.92349558       4.38405416      20.34021221        1       0.02267131      -0.00928263       0.00730707
Cu       7.46541028       4.37059313      20.31747732        1       0.00501961       0.02455365      -0.02178550
Cu      10.02311071       4.38081911      20.26055233        1      -0.02669511      -0.01209160       0.01028137
Cu       3.64283813       6.59630746      20.35671257        1       0.00624817      -0.00669948      -0.06137944
Cu       6.19035467       6.59671410      20.34266985        1       0.02877753      -0.01441105      -0.02688814
Cu       8.74351108       6.59588152      20.29066435        1      -0.00659190       0.00986061       0.01503802
Cu      11.30099027       6.59385476      20.32568227        1       0.00055257       0.01685382      -0.06677951
O        9.58264480       5.43224248      23.59539024        0       0.01779316       0.05174190      -0.06674254
C       10.56457659       4.81141737      23.39815905        0       0.52042782      -0.44357607       0.16957064
O       11.55079787       4.15647562      23.29034458        0      -0.46236640       0.37409002       0.00506424
