99
Lattice="10.210621920333747 0.0 0.0 5.105310960166873 8.842657971447272 0.0 0.0 0.0 30.421172358872745" Properties=species:S:1:pos:R:3:tags:I:1:forces:R:3 energy=-440.3045349121094 free_energy=-440.3045349121094 stress="0.01997325010597706 2.6817433536052704e-06 -1.424923539161682e-07 2.6817433536052704e-06 0.019916363060474396 -5.0484202802181244e-05 -1.424923539161682e-07 -5.0484202802181244e-05 0.012101788073778152" pbc="T T F"
Cu       0.81639648       0.61455053      10.09277231        6       0.01692561       0.00577166       0.00409312
Cu       3.36757786       0.61242900      10.07414999        6       0.00011215       0.00703465       0.03083626
Cu       5.91930556       0.62314644      10.08303204        6       0.03258288      -0.01984710       0.00327376
Cu       8.47891111       0.61985244      10.09720346        6      -0.00450787      -0.00594576       0.00047927
Cu       2.08896457       2.82980473      10.09977057        6       0.02282084      -0.00916625      -0.02143213
Cu       4.64205577       2.82053257      10.08529575        6       0.01369785       0.03103140      -0.00193877
Cu       7.19858287       2.82693246      10.09660519        6       0.00730260       0.00396888      -0.02245342
Cu       9.75344508       2.82213061      10.10343507        6       0.00799473       0.02302380      -0.00090370
Cu       3.37057489       5.03969249      10.09796842        6       0.01287046       0.00075961      -0.02356636
Cu       5.91763192       5.03737639      10.09157610        6       0.01591766      -0.00825515      -0.00771339
Cu       8.47258082       5.03087838      10.08887383        6       0.02801205       0.01481456       0.00166728
Cu      11.03313451       5.03933298      10.09894727        6      -0.01339098      -0.00195385      -0.01476159
Cu       4.64611730       7.25086142      10.09706963        6       0.00515721      -0.00686639      -0.00525548
Cu       7.19677469       7.24431395      10.07685198        6       0.01749774       0.00245283       0.02991347
Cu       9.75223310       7.24962050      10.07732742        6       0.00813879      -0.01167557       0.02295356
Cu      12.30945335       7.25487370      10.08906749        6       0.00214492      -0.00755502       0.00659296
Cu      -0.43581564       1.35879270      12.16193627        5       0.00541296      -0.01086192       0.01329470
Cu       2.11729937       1.35850095      12.14756766        5      -0.00461023      -0.01749366       0.02058377
Cu       4.66608966       1.35559777      12.14071353        5       0.00378552      -0.01078117       0.02406465
Cu       7.22210853       1.36262776      12.15184792        5      -0.00442439      -0.02298125       0.01383568
Cu       0.84111410       3.56864765      12.16402368        5      -0.00673703       0.00195552      -0.01962498
Cu       3.39590471       3.56905895      12.14662502        5      -0.01117963       0.00027472       0.02722846
Cu       5.94048332       3.56695201      12.14964889        5      -0.00048979      -0.00611450       0.00346627
Cu       8.48845552       3.56374344      12.15698394        5       0.03093271       0.00877944       0.00897456
Cu       2.11880727       5.78073259      12.15050214        5       0.00189055       0.00375763       0.01158710
Cu       4.66856170       5.77780891      12.15417687        5      -0.00512010       0.01065428       0.00568075
Cu       7.21610703       5.77300396      12.14574297        5      -0.00063919       0.00880850       0.01786903
Cu       9.76750223       5.77319580      12.14461530        5       0.01858193       0.01322557       0.00176834
Cu       3.39532860       7.99782871      12.15909020        5       0.00126342      -0.02144402      -0.01607967
Cu       5.94541577       7.98547037      12.14654958        5      -0.00213140       0.01189964       0.03939798
Cu       8.49581767       7.98483747      12.14044487        5      -0.00030321       0.00523020       0.00296576
Cu      11.05284666       7.99253017      12.13741662        5      -0.00434748      -0.01421004       0.02852188
Cu      -0.42180253      -0.12541419      14.21186510        4       0.02247476      -0.00030431      -0.05762533
Cu       2.12786619      -0.13027831      14.18742685        4      -0.00103222      -0.00205674       0.00327044
Cu       4.68468069      -0.13608563      14.18026576        4      -0.00922734       0.02097552      -0.02838092
Cu       7.23951803      -0.12619532      14.19303548        4      -0.00744059      -0.00328403      -0.00203767
Cu       0.85714000       2.08468779      14.20322054        4      -0.00426099      -0.01453511      -0.00930715
Cu       3.41190699       2.08847446      14.18440116        4      -0.01207514      -0.02433859       0.00456486
Cu       5.95891148       2.08064135      14.19119507        4      -0.00394949      -0.00343037       0.00008073
Cu       8.51188027       2.08349669      14.21020886        4       0.00894316      -0.00954441      -0.03400130
Cu       2.13620120       4.29307257      14.19837894        4       0.00983793       0.00845527      -0.04868335
Cu       4.68769592       4.29419270      14.19331687        4      -0.00760672      -0.00060969      -0.00389066
Cu       7.22610302       4.28714598      14.19846571        4       0.03540068       0.01459794      -0.02042339
Cu       9.78534337       4.29066981      14.19671226        4      -0.00177973      -0.00603739      -0.00741870
Cu       3.41153714       6.51247108      14.19700056        4      -0.00608202      -0.03183588      -0.02189737
Cu       5.95387012       6.50771980      14.19678095        4       0.02370298      -0.01357739      -0.00563145
Cu       8.50524599       6.49529177      14.18010862        4      -0.00344387       0.00930618       0.01905126
Cu      11.06726708       6.49893323      14.18017042        4      -0.00244740      -0.00169273      -0.00354095
Cu       0.87293906       0.60206316      16.23670007        3      -0.00224487      -0.01488279      -0.02215606
Cu       3.42385666       0.59958193      16.20534505        3       0.00379368      -0.00042914       0.01781932
Cu       5.97194112       0.60520156      16.21088741        3       0.02867787      -0.02141794       0.04220575
Cu       8.53049006       0.59763911      16.24086837        3      -0.00293547      -0.00287370       0.00184937
Cu       2.14828140       2.81321934      16.22589315        3       0.00100838      -0.00693042      -0.00187794
Cu       4.69093432       2.81625472      16.22148581        3       0.06921776      -0.02249859      -0.01434347
Cu       7.25444767       2.80457662      16.23544212        3       0.00038355       0.00493848       0.00114158
Cu       9.80857955       2.81281472      16.24275839        3      -0.00754307      -0.01375593      -0.00503951
Cu       3.43288422       5.02176540      16.22253443        3      -0.00616669       0.01534793       0.00298987
Cu       5.98025779       5.01282084      16.22772311        3       0.00784488       0.03639646       0.02385522
Cu       8.53207032       5.01780910      16.22141345        3      -0.01765787      -0.00069596       0.03909662
Cu      11.08643813       5.01618944      16.21533260        3       0.00251653       0.02211539       0.04222720
Cu       4.69893468       7.22606525      16.23816702        3       0.01838748       0.00788302      -0.02215633
Cu       7.25295559       7.22716148      16.22623761        3      -0.00158136      -0.01246920      -0.03153608
Cu       9.81081037       7.22891924      16.19640520        3      -0.01093845      -0.00987201       0.08071651
Cu      12.35693986       7.22929770      16.21537337        3       0.01653224       0.00169213       0.02415470
Cu      -0.37357686       1.32956952      18.28910389        2      -0.02765605       0.00734357      -0.02966033
Cu       2.17965215       1.33312134      18.25389381        2      -0.00516560       0.01746068       0.01915250
Cu       4.73455223       1.33932349      18.24604628        2      -0.02647763      -0.01600428       0.02050818
Cu       7.27911814       1.33172807      18.27493842        2       0.01541678      -0.00572169      -0.00097530
Cu       0.90425313       3.54470974      18.27134004        2      -0.00980589       0.01044686       0.02129267
Cu       3.45312346       3.55048327      18.25429860        2       0.00274698      -0.01511957       0.06798597
Cu       6.00996532       3.54045570      18.26788024        2      -0.02599691       0.01111473       0.04913615
Cu       8.56063604       3.54268112      18.28708847        2      -0.00740325      -0.00697085      -0.02671025
Cu       2.18407626       5.74843832      18.25848277        2       0.00072952       0.00042098      -0.02917931
Cu       4.73602009       5.75154102      18.27574395        2      -0.01299447      -0.01195953      -0.01352640
Cu       7.28363948       5.74731681      18.27464863        2      -0.03437212      -0.00552150      -0.06733701
Cu       9.83864517       5.75249344      18.24981483        2       0.00269108      -0.01615301      -0.02922529
Cu       3.45148752       7.95824097      18.27361081        2      -0.00756756       0.00398185      -0.01891031
Cu       6.00008815       7.95921412      18.26760588        2      -0.00157630      -0.01091108       0.01493830
Cu       8.55822507       7.96377683      18.23439394        2       0.01952414      -0.00401777       0.00078341
Cu      11.12007349       7.96103426      18.24460061        2      -0.02963116       0.01159619      -0.03022992
Cu      -0.35484340      -0.16752235      20.33118864        1       0.02011744       0.02661228       0.00643529
Cu       2.21303399      -0.15231011      20.27688533        1      -0.05142739      -0.01822536       0.01481758
Cu       4.77096041      -0.16090803      20.27942291        1      -0.02625673       0.00901845      -0.03146045
Cu       7.30801362      -0.16705215      20.32323546        1       0.02054502       0.03118162      -0.00195031
Cu       0.93079974       2.06010307      20.32446162        1      -0.01215757      -0.00436050      -0.01620609
Cu       3.49173887       2.05723637      20.30101297        1      -0.03877041       0.01054737      -0.01668366
Cu       6.03252715       2.04175605      20.32644415        1       0.00945012       0.03903852       0.00188658
Cu       8.58167915       2.05184226      20.35527323        1       0.00617038      -0.00036602      -0.04108782
Cu       2.22004906       4.26354330      20.32959135        1      -0.05249573      -0.00781319      -0.01629594
Cu       4.75421337       4.25263410      20.33343077        1       0.03211338       0.02093942      -0.01605867
Cu       7.30966771       4.26131687      20.34257850        1      -0.01962443      -0.01864996      -0.00894661
Cu       9.86879672       4.26931181      20.33915051        1      -0.00633229      -0.03388714      -0.03471109
Cu       3.48793140       6.46745919      20.32931688        1      -0.01030427       0.01148380       0.00871372
Cu       6.03544039       6.46022731      20.33764767        1      -0.01970703       0.03640660      -0.03921700
Cu       8.59438211       6.46761213      20.28046579        1      -0.02372329       0.01571071       0.03693351
Cu      11.15633361       6.46922408      20.28434532        1      -0.04207985       0.00310866       0.03567911
O       18.25585145       8.69353775      23.38285413        0      -0.09821267       0.06339701      -0.06601354
C       19.18246065       7.97845383      23.52426739        0       0.12489851      -0.02575354       0.14775667
O       20.10620635       7.27437025      23.72361728        0      -0.00013689      -0.03129807      -0.06003391
