99
Lattice="10.210621920333747 0.0 0.0 5.105310960166873 8.842657971447272 0.0 0.0 0.0 30.421172358872745" Properties=species:S:1:pos:R:3:tags:I:1:forces:R:3 energy=-440.26983642578125 free_energy=-440.26983642578125 stress="0.018451286479830742 3.243330866098404e-06 1.51805579662323e-07 3.243330866098404e-06 0.0183650441467762 -4.8135872930288315e-05 1.51805579662323e-07 -4.8135872930288315e-05 0.010949162766337395" pbc="T T F"
Cu       1.27860514       0.75862370      10.09578290        6      -0.00113597      -0.00275710      -0.00503375
Cu       3.83137566       0.75818595      10.09687126        6      -0.00217582      -0.00101771      -0.00434012
Cu       6.38376121       0.75899153      10.09822354        6      -0.00222486      -0.00473744      -0.00435860
Cu       8.93634695       0.75836483      10.09735950        6      -0.00300370      -0.00221575      -0.00635806
Cu       2.55506603       2.96912583      10.09723481        6      -0.00165623       0.00084100      -0.00481115
Cu       5.10764751       2.96899477      10.09810333        6      -0.00389348       0.00059688      -0.00410173
Cu       7.66011695       2.96873156      10.09826909        6      -0.00172536       0.00026361      -0.00479548
Cu      10.21283640       2.96874187      10.09710454        6      -0.00284868       0.00181533      -0.00423207
Cu       3.83123859       5.18004640      10.09970963        6      -0.00239635       0.00056822      -0.00437207
Cu       6.38393872       5.17882547      10.10033138        6      -0.00272119       0.00356333      -0.00682477
Cu       8.93617229       5.17929429      10.09924584        6      -0.00010134       0.00161421      -0.00415433
Cu      11.48918688       5.17910542      10.09994038        6      -0.00344246       0.00400891      -0.00510077
Cu       5.10819512       7.39071513      10.09929329        6      -0.00472870      -0.00407173      -0.00791146
Cu       7.66042272       7.39000261      10.09831631        6      -0.00197123      -0.00179767      -0.00489095
Cu      10.21279727       7.39058663      10.09973406        6      -0.00089654      -0.00345183      -0.00529666
Cu      12.76540844       7.39047601      10.09897776        6      -0.00364507      -0.00188740      -0.00379379
Cu      -0.00012278       1.48640377      12.15460001        5       0.00019752       0.00046753       0.01081189
Cu       2.55213551       1.48734234      12.15482726        5       0.00145474      -0.00144354       0.00983214
Cu       5.10424024       1.48730382      12.15701408        5       0.00101244      -0.00304188       0.00835465
Cu       7.65760341       1.48654554      12.15716844        5      -0.00024411      -0.00125140       0.00676025
Cu       1.27587182       3.69815712      12.15726015        5       0.00009363      -0.00013524       0.00832596
Cu       3.82802893       3.69872971      12.15802305        5       0.00018493      -0.00212728       0.00682924
Cu       6.38112555       3.69791057      12.15827227        5       0.00009572      -0.00164906       0.00732595
Cu       8.93383981       3.69787254      12.15774119        5       0.00216255      -0.00124801       0.00734311
Cu       2.55135423       5.90931871      12.16021453        5       0.00051603      -0.00144071       0.00621345
Cu       5.10488540       5.90915216      12.15965503        5      -0.00112267      -0.00163508       0.00513880
Cu       7.65781261       5.90852702      12.15973398        5       0.00071823       0.00056065       0.00482041
Cu      10.20926827       5.90868424      12.16016285        5       0.00430839       0.00062468       0.00536215
Cu       3.82806167       8.11878901      12.15745880        5       0.00039201      -0.00100131       0.00864854
Cu       6.38167994       8.11897550      12.15638874        5       0.00008096      -0.00072879       0.00827913
Cu       8.93349255       8.11930939      12.15784951        5       0.00319953      -0.00066578       0.00693973
Cu      11.48583502       8.11902394      12.15932113        5       0.00069952      -0.00073472       0.00668575
Cu      -0.00836609      -0.01210617      14.19497438        4       0.00075318       0.00191617      -0.00062566
Cu       2.54387829      -0.01198722      14.19537995        4       0.00065723       0.00257230      -0.00014953
Cu       5.09575268      -0.01252676      14.19968445        4       0.00202586       0.00414422      -0.00345384
Cu       7.64926428      -0.01287850      14.19840476        4       0.00060215       0.00257521      -0.00168066
Cu       1.26797651       2.19847870      14.19374415        4       0.00031387       0.00181410       0.00059736
Cu       3.81909677       2.19765772      14.19626549        4       0.00065879       0.00290008      -0.00139342
Cu       6.37238201       2.19724675      14.19592963        4       0.00105913       0.00319936      -0.00125080
Cu       8.92642190       2.19751231      14.19476267        4       0.00180387       0.00409130      -0.00173240
Cu       2.54278222       4.40913819      14.19943292        4       0.00197637       0.00567667      -0.00368949
Cu       5.09529696       4.40866658      14.19792578        4       0.00183879       0.00486675      -0.00295937
Cu       7.64944746       4.40893049      14.19785567        4       0.00195726       0.00480835      -0.00368673
Cu      10.20274682       4.40998972      14.19868474        4       0.00044802       0.00254237      -0.00186823
Cu       3.81935445       6.62054603      14.20028518        4       0.00127955       0.00309632      -0.00331073
Cu       6.37254494       6.62060213      14.19851937        4       0.00211295       0.00448337      -0.00402614
Cu       8.92635175       6.62165095      14.20022212        4       0.00003971       0.00136618      -0.00156018
Cu      11.47790893       6.62100846      14.20284616        4       0.00079328       0.00246103      -0.00342055
Cu       1.26646288       0.72155448      16.22237819        3       0.00073656       0.00173059      -0.00099597
Cu       3.81628594       0.72027744      16.22638589        3      -0.00003866       0.00108199      -0.00144100
Cu       6.37157643       0.71912823      16.22594004        3      -0.00043185       0.00004390       0.00004589
Cu       8.92654391       0.71955508      16.22303486        3       0.00024519       0.00073930       0.00016553
Cu       2.54046514       2.93183617      16.22536122        3      -0.00063528      -0.00044345      -0.00079006
Cu       5.09261039       2.92886156      16.22227779        3       0.00168205       0.00214140      -0.00035709
Cu       7.65023331       2.92813419      16.22048805        3       0.00034904       0.00220039      -0.00005590
Cu      10.20264301       2.93092264      16.22259936        3      -0.00021850       0.00053934      -0.00031064
Cu       3.81670130       5.14383321      16.22686569        3       0.00052505       0.00055506       0.00016641
Cu       6.37082412       5.14417468      16.22223847        3       0.00025834      -0.00011739       0.00082445
Cu       8.92500709       5.14427317      16.22494137        3      -0.00031308       0.00044726       0.00090114
Cu      11.47615211       5.14362945      16.23088152        3      -0.00046602       0.00052391       0.00009730
Cu       5.09447865       7.35564408      16.22596445        3       0.00081735       0.00187984      -0.00077141
Cu       7.64715058       7.35617845      16.22621924        3       0.00057826       0.00078033      -0.00046706
Cu      10.19951756       7.35444433      16.23271008        3       0.00057431       0.00117709      -0.00140476
Cu      12.75270333       7.35420139      16.23124727        3       0.00026005       0.00115418       0.00003346
Cu       0.00097142       1.46761716      18.25885264        2      -0.00549588       0.00309006      -0.00203231
Cu       2.54277144       1.46835212      18.26249555        2       0.00294344       0.00128669      -0.00101471
Cu       5.09516162       1.46371922      18.25675500        2       0.00231772       0.00059892      -0.00510836
Cu       7.65806481       1.46333951      18.25406695        2      -0.00314996       0.00444148       0.00176113
Cu       1.26944967       3.67882223      18.26434521        2       0.00190389       0.00023585      -0.00602051
Cu       3.81822766       3.67758284      18.25379194        2       0.00473984      -0.00041241      -0.00108391
Cu       6.37894857       3.67702424      18.24322856        2      -0.00185627      -0.00109183      -0.00617103
Cu       8.93542300       3.68016900      18.25213178        2      -0.00474171      -0.00313500      -0.00167043
Cu       2.54733953       5.89413619      18.26707507        2       0.00029725      -0.00349226      -0.00525561
Cu       5.10094978       5.89782544      18.25559640        2      -0.00034308      -0.00743506      -0.00598180
Cu       7.65453817       5.89807563      18.25781640        2      -0.00081635      -0.00568971      -0.01066563
Cu      10.20572036       5.89461243      18.26903957        2      -0.00234429      -0.00412931      -0.00243975
Cu       3.82695217       8.10583273      18.26655628        2      -0.00177674      -0.00288305      -0.01009132
Cu       6.37752488       8.10684904      18.26201652        2      -0.00155927      -0.00478529       0.00038702
Cu       8.92751960       8.10425044      18.26813571        2      -0.00061009      -0.00359757       0.00673822
Cu      11.48211604       8.10298706      18.27000190        2       0.00035333      -0.00098790      -0.00104592
Cu       0.01026296      -0.00379428      20.32262907        1       0.00024571       0.00031087       0.00741570
Cu       2.55886105      -0.00548419      20.32650416        1       0.00282020      -0.00030643       0.00588964
Cu       5.11167087      -0.01058630      20.32464627        1       0.00066382       0.00556979       0.00331307
Cu       7.66790420      -0.00829226      20.32250748        1      -0.00542343       0.00411485       0.00372625
Cu       1.28506260       2.20600190      20.32283073        1      -0.00106867      -0.00320845       0.00521732
Cu       3.83153801       2.19869312      20.30495435        1      -0.00092602       0.00281009       0.00002370
Cu       6.38608394       2.19731154      20.28317580        1       0.00271143       0.00267232      -0.00391457
Cu       8.94887516       2.20363504      20.29639797        1      -0.00394412      -0.00175057      -0.00125114
Cu       2.55709171       4.41789599      20.30841918        1       0.00042383      -0.00506578       0.00612070
Cu       5.11227186       4.42098767      20.27371683        1      -0.00079947      -0.00449607       0.00474044
Cu       7.67240993       4.42316660      20.28386576        1      -0.00360594      -0.00593920      -0.00366296
Cu      10.22199974       4.41872039      20.31502273        1      -0.00021187      -0.00507238       0.00453999
Cu       3.83855624       6.63350845      20.31353540        1      -0.00098512      -0.00376650       0.00562804
Cu       6.39327020       6.63362943      20.30914599        1      -0.00240861      -0.00365936       0.00372366
Cu       8.94361552       6.62837536      20.32563507        1       0.00006207      -0.00268208       0.00249861
Cu      11.49613813       6.62849319      20.32711930        1      -0.00033321      -0.00154442       0.00280185
O        5.16301896       4.15501615      23.49954693        0       0.00293684       0.00644858      -0.00055050
C        6.24198391       3.67931037      23.48438822        0       0.04776848      -0.01207259       0.00552860
O        7.32010978       3.20081502      23.49920335        0      -0.02521442       0.01279460      -0.00081762
