99
Lattice="10.210621920333747 0.0 0.0 5.105310960166873 8.842657971447272 0.0 0.0 0.0 30.421172358872745" Properties=species:S:1:pos:R:3:tags:I:1:forces:R:3 energy=-440.2449035644531 free_energy=-440.2449035644531 stress="0.01965518668293953 3.402121365070343e-06 1.9511207938194275e-07 3.402121365070343e-06 0.019577831029891968 -4.853587597608566e-05 1.9511207938194275e-07 -4.853587597608566e-05 0.012109735049307346" pbc="T T F"
Cu       1.20732329       0.71773420      10.09674447        6      -0.01910232      -0.00730549      -0.02494256
Cu       3.75478640       0.70471224      10.10850985        6      -0.00958563       0.02675967      -0.04440345
Cu       6.30911024       0.72042723      10.09785884        6      -0.01174227      -0.01329355      -0.02010728
Cu       8.86738144       0.71799078      10.09655643        6      -0.02887270      -0.00188520      -0.02201625
Cu       2.48178016       2.93409380      10.08071473        6      -0.00488206      -0.03007716       0.01721369
Cu       5.03195217       2.91955556      10.09126108        6      -0.01412594       0.01609614      -0.01261176
Cu       7.58252916       2.92597912      10.09137263        6       0.00125904       0.00476639      -0.00878357
Cu      10.13839445       2.92581710      10.09015826        6      -0.00901007       0.01495199      -0.00676274
Cu       3.75747791       5.14032600      10.07149954        6      -0.01631884       0.00711443       0.01917691
Cu       6.30552013       5.13041983      10.09148382        6      -0.00293690       0.01087578      -0.01698808
Cu       8.86029146       5.14251740      10.08241814        6      -0.00917776      -0.02747169       0.02546453
Cu      11.41711822       5.13771762      10.09275060        6      -0.02290022       0.00645380      -0.01498143
Cu       5.02930793       7.35152000      10.08490338        6      -0.00802482      -0.01169174       0.01265797
Cu       7.58424217       7.34447146      10.10490176        6      -0.02146220      -0.00341043      -0.03092393
Cu      10.14161913       7.34575103      10.10910619        6      -0.02115649       0.00454407      -0.03059691
Cu      12.68662629       7.35875872      10.08242953        6      -0.00107573      -0.02562170       0.02278203
Cu      -0.08541474       1.45109186      12.15027953        5      -0.00308190      -0.00627746       0.03939189
Cu       2.46330044       1.45554056      12.14481073        5       0.01005316      -0.00614841       0.04631718
Cu       5.01425147       1.45295387      12.14932047        5       0.00644258       0.01081467       0.03996316
Cu       7.57505944       1.45118417      12.15159952        5      -0.01979512       0.00405925       0.05669581
Cu       1.19731750       3.65798754      12.14679741        5      -0.00731358       0.01919395       0.02875113
Cu       3.75514102       3.67532035      12.13967402        5      -0.04604905      -0.03847656       0.04509037
Cu       6.29751519       3.66138938      12.15739491        5      -0.01040982      -0.01090966       0.00047306
Cu       8.84743789       3.65220116      12.14595870        5       0.01634895       0.02500109       0.03048450
Cu       2.47475306       5.87368787      12.14025634        5      -0.02479280       0.01865219       0.02874038
Cu       5.02323122       5.86697573      12.14066254        5      -0.02133933       0.03351672       0.05747610
Cu       7.56614313       5.86025542      12.15149697        5       0.02158019       0.02417309       0.00990246
Cu      10.12450302       5.86083844      12.15105918        5       0.01124624       0.02327773       0.01930566
Cu       3.73234562       8.08150845      12.15088315        5       0.02979647       0.00653015       0.02850112
Cu       6.28652556       8.07779096      12.14964722        5       0.01086535       0.01606231       0.04308954
Cu       8.84305229       8.07645375      12.16150677        5       0.00787270       0.01354784       0.00653544
Cu      11.39940691       8.09367548      12.15882554        5       0.00301672      -0.02512589       0.00363545
Cu      -0.10436538      -0.02984484      14.19806010        4       0.02227544      -0.00893450      -0.01883513
Cu       2.45359328      -0.03212552      14.19661815        4      -0.02390530       0.00920877      -0.03326998
Cu       5.00448384      -0.01520080      14.19623379        4      -0.00734108      -0.01370559      -0.00661679
Cu       7.55981065      -0.02480698      14.21264017        4      -0.02389511       0.01023274      -0.06653289
Cu       1.17305523       2.18255473      14.19239330        4      -0.00135947       0.00317476      -0.01376322
Cu       3.71368936       2.18626350      14.19005345        4       0.02022389       0.00616831      -0.01788300
Cu       6.26570442       2.18647310      14.19684072        4       0.03945354      -0.01699595      -0.01034861
Cu       8.83075976       2.17361939      14.20190347        4       0.00264225       0.02449238      -0.03167583
Cu       2.45202969       4.40715275      14.19007661        4      -0.01163528      -0.02248342      -0.02094849
Cu       4.99519959       4.39224503      14.20411425        4       0.02517225       0.00634356      -0.07125911
Cu       7.56392781       4.38369958      14.19448718        4      -0.00776698      -0.00253813       0.00133746
Cu      10.10882560       4.38901690      14.19406832        4       0.00979994       0.00435707      -0.03093153
Cu       3.73139320       6.60535234      14.19530963        4      -0.00013732      -0.00093323      -0.02152805
Cu       6.28005079       6.59946863      14.19577347        4      -0.00201478      -0.00328075      -0.01560087
Cu       8.83316387       6.59765611      14.18597046        4       0.00413203       0.00101082       0.02884135
Cu      11.39231726       6.61407310      14.18844510        4      -0.01793614      -0.01199910      -0.00728947
Cu       1.16823278       0.71812229      16.22201317        3      -0.01554108      -0.04282823       0.01881515
Cu       3.70765328       0.71291513      16.22930260        3       0.00592884       0.01482037      -0.01959664
Cu       6.26018566       0.71230155      16.23755168        3       0.00389234      -0.01267785      -0.03272438
Cu       8.83162007       0.70512406      16.23559768        3      -0.02228855      -0.00972817       0.00777060
Cu       2.43627467       2.93745072      16.21888574        3      -0.01808953      -0.03527605       0.03915633
Cu       4.97258818       2.91625570      16.23117429        3       0.02113994      -0.00857142      -0.00793751
Cu       7.53534114       2.90442742      16.22885283        3       0.01838616       0.02561894      -0.02066714
Cu      10.10174293       2.92022991      16.22706976        3      -0.01964198      -0.00501014       0.00490124
Cu       3.71247351       5.13628451      16.23354187        3      -0.00733392      -0.01282948       0.00605567
Cu       6.27109668       5.11448506      16.21824929        3      -0.02327237       0.03210389       0.06022642
Cu       8.82470068       5.12317002      16.22681877        3      -0.04588547       0.01536843      -0.00949427
Cu      11.36596944       5.14488226      16.21887892        3       0.00810684      -0.01884690       0.01868763
Cu       4.99437641       7.33041402      16.23213018        3       0.00331488       0.02242059       0.00616510
Cu       7.54156895       7.33722202      16.22360712        3      -0.00826909      -0.01194291      -0.00654878
Cu      10.08940252       7.35221976      16.21177281        3       0.01657258      -0.02854895       0.01417831
Cu      12.65632606       7.33965541      16.23127125        3      -0.02130138       0.01085499       0.00260474
Cu      -0.11801539       1.44068627      18.26555306        2      -0.04741604       0.03344737       0.02222037
Cu       2.42469557       1.45378204      18.26692481        2       0.01258446       0.00522457       0.01137268
Cu       4.96619087       1.44328086      18.28321537        2       0.00824811       0.01432352      -0.02944987
Cu       7.52530018       1.43364693      18.26632656        2      -0.00892924       0.02770553       0.02687250
Cu       1.14243387       3.66728274      18.26060278        2       0.00196536      -0.01979493      -0.03425100
Cu       3.68938846       3.64893051      18.27667210        2       0.01995841       0.01767112      -0.01366407
Cu       6.23516207       3.64052936      18.25853180        2       0.02791857       0.03954570       0.03264578
Cu       8.79060372       3.64906310      18.25808707        2       0.02223039       0.00945617      -0.01573113
Cu       2.40691023       5.86971557      18.27227215        2       0.05943081       0.00392789      -0.00399314
Cu       4.96008707       5.86168725      18.27530693        2       0.02881487       0.00907007      -0.00852262
Cu       7.50648833       5.86751455      18.26170188        2       0.02006506      -0.01865819      -0.01628726
Cu      10.06843695       5.88727078      18.25437522        2       0.00916658      -0.05907612      -0.00617278
Cu       3.69457729       8.07632376      18.28008969        2       0.00953100      -0.01157741      -0.02900304
Cu       6.25025882       8.08194845      18.26416716        2      -0.00554013      -0.00789823       0.00370983
Cu       8.79653010       8.07940419      18.25060368        2       0.00462128       0.02823648       0.06682599
Cu      11.35047650       8.07100814      18.26022432        2      -0.00263099       0.04144808       0.03418500
Cu      -0.14203415      -0.03462456      20.32381449        1       0.00809514       0.03152610       0.02265476
Cu       2.41164332      -0.02574587      20.31776518        1       0.02639029      -0.01082462       0.01037138
Cu       4.96312713      -0.02443072      20.31925028        1       0.00750191      -0.03796305       0.01920366
Cu       7.50916131      -0.03316885      20.32701042        1       0.01372053       0.00012935       0.01658486
Cu       1.14558392       2.17917333      20.31099486        1      -0.02790705      -0.00570029      -0.01935930
Cu       3.69319462       2.17889388      20.36543806        1       0.01257030       0.00163024      -0.09444380
Cu       6.24168876       2.18320647      20.33473540        1      -0.00324121      -0.02732934      -0.00862410
Cu       8.78231414       2.17199045      20.31506753        1       0.05547761       0.00032298      -0.02309664
Cu       2.42540385       4.39407814      20.31202703        1       0.00462277       0.00555053       0.00401118
Cu       4.97287525       4.39057785      20.32490116        1      -0.02007895       0.00255013       0.00870873
Cu       7.51060375       4.38690000      20.30412079        1       0.00630272       0.01165846      -0.03213328
Cu      10.07415460       4.39514582      20.27866951        1      -0.01790503      -0.00816833      -0.04564315
Cu       3.69128542       6.60841850      20.34797655        1      -0.00785116      -0.03592226      -0.03705374
Cu       6.23456148       6.61296806      20.32437363        1       0.02439732      -0.03348430      -0.01287647
Cu       8.79267842       6.60784656      20.29537215        1      -0.00626438       0.01871912      -0.00168181
Cu      11.35110299       6.60298241      20.32596133        1      -0.00647679       0.01149457      -0.02391863
O        8.70461715       5.19977243      23.58494490        0      -0.04322383       0.06185170      -0.05134275
C        9.66002727       4.52094192      23.46846203        0       0.47902408      -0.40050527       0.15858574
O       10.61775556       3.82238253      23.42200137        0      -0.37392700       0.30366945      -0.02452436
