99
Lattice="10.210621920333747 0.0 0.0 5.105310960166873 8.842657971447272 0.0 0.0 0.0 30.421172358872745" Properties=species:S:1:pos:R:3:tags:I:1:forces:R:3 energy=-440.2164306640625 free_energy=-440.2164306640625 stress="0.01867147535085678 3.111083060503006e-06 1.685693860054016e-07 3.111083060503006e-06 0.018596816807985306 -4.845764487981796e-05 1.685693860054016e-07 -4.845764487981796e-05 0.01111169159412384" pbc="T T F"
Cu       1.24914241       0.75637195      10.09260427        6      -0.00728688      -0.00213224      -0.01640585
Cu       3.80250742       0.75599058      10.08973267        6       0.00206648      -0.00353452      -0.01300905
Cu       6.35667982       0.75552029      10.09406143        6      -0.01251010       0.00131456      -0.02719919
Cu       8.90456955       0.75478165      10.09352598        6       0.01144704      -0.00552116      -0.01023099
Cu       2.52593578       2.97051917      10.08779034        6      -0.00395776      -0.00864454      -0.01212527
Cu       5.07826087       2.96675458      10.08985618        6       0.00182638      -0.00073886      -0.00263826
Cu       7.63080236       2.96441244      10.09343737        6      -0.00147221       0.01922451      -0.00539968
Cu      10.18227850       2.96832760      10.08988876        6      -0.00168667      -0.00458961      -0.00933908
Cu       3.80082933       5.17830779      10.09225074        6       0.00171783       0.00002974      -0.00439005
Cu       6.35173367       5.17617058      10.09781333        6       0.02362427      -0.00065277       0.00437371
Cu       8.91153986       5.17972510      10.09298811        6      -0.03233088      -0.00419359       0.01360190
Cu      11.46096313       5.18082893      10.09363451        6      -0.00802405      -0.00951032      -0.02406378
Cu       5.07826766       7.38613783      10.09715824        6      -0.00775802       0.00482933      -0.01187438
Cu       7.63152351       7.38809591      10.09359243        6       0.00453362      -0.01155953       0.01044185
Cu      10.18965251       7.38973738      10.09276719        6      -0.03788700      -0.00501566      -0.01362226
Cu      12.73290580       7.38711723      10.09233547        6       0.02338134       0.00532794      -0.01428247
Cu      -0.02756759       1.49052468      12.14734972        5      -0.00193710      -0.01082078       0.01378224
Cu       2.52990937       1.49258237      12.13938508        5      -0.00702490      -0.01179027       0.03975142
Cu       5.08179098       1.48742284      12.14734328        5      -0.01248066       0.00365843       0.02139697
Cu       7.62688965       1.48720210      12.14842267        5       0.01832085      -0.00070371       0.03144125
Cu       1.25061124       3.70285078      12.14189748        5       0.00329142      -0.00823511       0.02694305
Cu       3.80617076       3.69885480      12.14799396        5      -0.00932163       0.00324370       0.02027179
Cu       6.35501718       3.69408971      12.15695150        5       0.00222322       0.01949964      -0.01041841
Cu       8.90734732       3.69736159      12.15311820        5      -0.00459790       0.00952548      -0.00728343
Cu       2.52299120       5.91309202      12.14943085        5       0.01966921      -0.01217977       0.02969431
Cu       5.07719340       5.90739386      12.15447117        5       0.00337486       0.00432726       0.02473617
Cu       7.63308866       5.90748066      12.16348036        5      -0.00942872       0.00775442      -0.04551980
Cu      10.18536220       5.91369434      12.15354900        5      -0.00892833      -0.01173918      -0.00220656
Cu       3.79936521       8.11938978      12.15288809        5       0.00753234      -0.00277510       0.01008807
Cu       6.35389639       8.12105751      12.15024507        5       0.00675745      -0.00974911       0.02073613
Cu       8.91331942       8.12292337      12.15233868        5      -0.02889023      -0.00670515      -0.01124689
Cu      11.45851366       8.11929802      12.14833670        5       0.01039147       0.00779765       0.03257097
Cu      -0.03171134      -0.00345893      14.18910955        4       0.00167427      -0.00400436       0.00632564
Cu       2.52118721       0.00085337      14.18425965        4      -0.00194332      -0.00735733       0.00622966
Cu       5.07386327      -0.00079461      14.18810222        4       0.01158272      -0.00736776       0.02705781
Cu       7.62842308      -0.00204668      14.18853991        4      -0.00185765      -0.00290683       0.01105101
Cu       1.24744002       2.20877905      14.17772252        4      -0.00087802      -0.00289256       0.02087739
Cu       3.79700162       2.20486804      14.18843233        4       0.00042186      -0.00106217       0.00224683
Cu       6.34757808       2.20576174      14.19235592        4       0.01116338      -0.00371116       0.01350838
Cu       8.90368169       2.20974618      14.18784165        4      -0.00143182      -0.00543694       0.00747454
Cu       2.52442668       4.41311514      14.18622701        4       0.00172208       0.01413592       0.01290487
Cu       5.07406989       4.41169584      14.19680453        4      -0.00090169       0.00957467       0.00545038
Cu       7.62405013       4.41399902      14.19791403        4       0.02268217       0.01065532       0.00700610
Cu      10.18466671       4.41721712      14.18231872        4      -0.00355075       0.01458478       0.04517211
Cu       3.79756948       6.62538963      14.19775430        4       0.00425491       0.00044495      -0.00154743
Cu       6.34950708       6.62503873      14.19814189        4       0.00115345       0.00923720      -0.00128624
Cu       8.90624215       6.63258391      14.19094940        4       0.00096276      -0.00546769       0.01917504
Cu      11.45999320       6.63089165      14.18978262        4      -0.00097115      -0.00320368       0.01631787
Cu       1.25567437       0.72811631      16.21666667        3      -0.00817233      -0.00680491      -0.00652972
Cu       3.80022841       0.72205992      16.22125789        3       0.00046613      -0.00395167       0.00054299
Cu       6.35754161       0.72061457      16.22388796        3      -0.00522004      -0.00279395       0.00001533
Cu       8.91470209       0.72428980      16.22251947        3      -0.01201109      -0.00056062      -0.01587084
Cu       2.52655516       2.93192814      16.22122637        3      -0.00373477      -0.00074109       0.00005234
Cu       5.07400289       2.92466932      16.22940252        3       0.00028975       0.02325712      -0.03721238
Cu       7.63366726       2.92491954      16.22626992        3       0.00419152       0.02844826      -0.05362900
Cu      10.19297840       2.93768744      16.21761584        3      -0.01048448      -0.00060832      -0.01027971
Cu       3.80057280       5.14278126      16.22934727        3      -0.00266265      -0.00037813      -0.00474668
Cu       6.35232910       5.14454410      16.23010428        3       0.00790548       0.00013490      -0.03478109
Cu       8.91273283       5.14722378      16.21931386        3      -0.00301268      -0.00542356      -0.00175124
Cu      11.46761203       5.14515336      16.22232708        3      -0.00814394      -0.00172243      -0.00161088
Cu       5.08039810       7.35904036      16.23097192        3      -0.00209950      -0.00204164      -0.04030520
Cu       7.63605734       7.35801446      16.22321168        3      -0.00959291       0.00164507      -0.04299546
Cu      10.19288043       7.35711556      16.22709215        3      -0.02069616       0.00278721      -0.03923230
Cu      12.74168295       7.35974062      16.22858256        3      -0.00492788      -0.00579118      -0.00096863
Cu      -0.01946726       1.45902810      18.25129558        2       0.00021001       0.00082714       0.03541363
Cu       2.52462184       1.45683833      18.26273349        2       0.01867155       0.01409463      -0.00954563
Cu       5.07432549       1.45333248      18.26386865        2      -0.00909110       0.00026570       0.00664959
Cu       7.63623913       1.45413375      18.26062994        2      -0.01562964      -0.00601194      -0.01907359
Cu       1.25115773       3.66970872      18.26644408        2       0.00276576       0.00653872      -0.04778639
Cu       3.79314981       3.66873679      18.26514382        2       0.02248687      -0.01184013      -0.01372340
Cu       6.35662733       3.66387892      18.24429357        2      -0.02152916       0.01341164       0.05809316
Cu       8.91256828       3.66638655      18.25102231        2       0.00969275       0.01774333      -0.03227632
Cu       2.52170862       5.88373466      18.27133711        2       0.02604170      -0.00020272      -0.01729358
Cu       5.07611831       5.88714286      18.26107334        2       0.00253744      -0.01309664       0.01006689
Cu       7.63890328       5.88957022      18.25423836        2      -0.02932584      -0.02748451       0.00778720
Cu      10.18649829       5.88702744      18.26033626        2      -0.00840658      -0.01914134       0.00389460
Cu       3.80598669       8.09931767      18.26803366        2       0.00270882      -0.02225618      -0.00072292
Cu       6.36359424       8.09651987      18.25716141        2      -0.03246392       0.00160866       0.00938919
Cu       8.90574535       8.08909347      18.26158357        2       0.02043524       0.02926750       0.02869591
Cu      11.45947659       8.09100433      18.26683070        2       0.00211697       0.01339155       0.00784736
Cu      -0.01562219      -0.02145353      20.32166700        1      -0.01616920       0.01699837      -0.01002361
Cu       2.52517458      -0.02243527      20.31984077        1       0.03724948       0.00137162       0.01704858
Cu       5.08123551      -0.03241794      20.33020507        1      -0.00687383       0.01314184      -0.01002143
Cu       7.63847949      -0.02874010      20.31647078        1      -0.00139116      -0.00380186       0.02479052
Cu       1.26039993       2.18853656      20.31329444        1      -0.01591740      -0.00300711       0.01668663
Cu       3.80413493       2.17915852      20.32692232        1       0.01208256       0.00167283      -0.02185636
Cu       6.35932087       2.17386131      20.30297410        1      -0.01800368       0.02515868      -0.01927228
Cu       8.91351606       2.18819838      20.29531786        1       0.03180374      -0.02169880       0.00787714
Cu       2.53460972       4.39602438      20.32185655        1      -0.01364695       0.00924600       0.01020831
Cu       5.08021072       4.39703910      20.29386227        1       0.02175725      -0.00446063      -0.02433309
Cu       7.64575106       4.40026039      20.28153921        1      -0.03084296       0.01170147      -0.02534393
Cu      10.19359842       4.39822490      20.30307368        1       0.01082870       0.01312358       0.02516297
Cu       3.81125881       6.61392097      20.32399415        1      -0.01729055      -0.00274707      -0.01574078
Cu       6.35927460       6.61948232      20.30666336        1       0.01408817      -0.02016501      -0.01784311
Cu       8.90903137       6.60783732      20.31687571        1       0.02303727       0.00459766       0.01521484
Cu      11.46439788       6.60601443      20.32318520        1       0.00473973       0.00680919       0.01531549
O        6.00531906       4.43923318      23.54917892        0      -0.05955699       0.06850345      -0.02769014
C        6.98972652       3.79378272      23.58798623        0       0.42518455      -0.33873856       0.09719574
O        7.96664195       3.13048172      23.66215983        0      -0.30311260       0.22875294      -0.05202571
