99
Lattice="10.210621920333747 0.0 0.0 5.105310960166873 8.842657971447272 0.0 0.0 0.0 30.421172358872745" Properties=species:S:1:pos:R:3:tags:I:1:forces:R:3 energy=-440.3323669433594 free_energy=-440.3323669433594 stress="0.01989380270242691 2.93925404548645e-06 4.521571099758148e-07 2.93925404548645e-06 0.019798364490270615 -5.122926086187363e-05 4.521571099758148e-07 -5.122926086187363e-05 0.011942781507968903" pbc="T T F"
Cu       0.99984002       0.66560198      10.09047524        6      -0.00474176      -0.01142068       0.00704914
Cu       3.55774447       0.66308690      10.09883404        6      -0.03768827       0.00211826       0.00696846
Cu       6.10174595       0.66857964      10.09183470        6       0.00121358      -0.01346496       0.01364453
Cu       8.65325932       0.66229451      10.09470099        6      -0.01710282      -0.00312624      -0.01076269
Cu       2.27613789       2.87861045      10.08953981        6      -0.02775344      -0.02129273       0.00363821
Cu       4.82617723       2.87884317      10.09463681        6      -0.00370195      -0.00443950       0.00577365
Cu       7.37676715       2.88098979      10.09456503        6      -0.00323100      -0.01519798       0.00310718
Cu       9.92715214       2.87216830      10.08707474        6      -0.00512343       0.01622787       0.00848666
Cu       3.54415829       5.08772194      10.10244821        6       0.01539675       0.00698508      -0.02582006
Cu       6.10524688       5.08985070      10.11737924        6      -0.02601456      -0.00047401      -0.04683395
Cu       8.65432857       5.09347786      10.09949284        6       0.00208618      -0.02170588       0.01493785
Cu      11.20568645       5.08727020      10.09725040        6      -0.03022015      -0.00883045       0.00837904
Cu       4.82745329       7.29728991      10.11355541        6      -0.01445033      -0.00381121      -0.03777795
Cu       7.38517187       7.29784840      10.11449045        6      -0.02443239       0.01611511      -0.02158403
Cu       9.93325396       7.29865091      10.11097393        6      -0.00953096      -0.00105073      -0.00890517
Cu      12.47926815       7.29759723      10.09447053        6      -0.00127335       0.00052711       0.01722056
Cu      -0.29598807       1.39247643      12.14313515        5       0.00206329      -0.00171725       0.02871143
Cu       2.26138743       1.39409886      12.15029871        5       0.00611699      -0.00600371       0.01564302
Cu       4.81949818       1.39405921      12.15393535        5       0.00343100       0.01524232       0.05519962
Cu       7.36512452       1.39583883      12.15318933        5       0.00462426      -0.00106325       0.03082857
Cu       0.97759399       3.59762734      12.14868317        5       0.00723972       0.02362738       0.01006914
Cu       3.53607050       3.60446618      12.15046160        5       0.00181705      -0.01848852       0.03179692
Cu       6.09418528       3.60921264      12.16060810        5      -0.00344993      -0.02898216       0.02084428
Cu       8.64206954       3.60643499      12.15402519        5       0.00582167       0.00123467       0.01640015
Cu       2.25665072       5.81364990      12.15552068        5      -0.02002119      -0.00487476      -0.00247355
Cu       4.80944270       5.81436720      12.16319560        5       0.00591364      -0.00155634       0.00924300
Cu       7.36817817       5.82777384      12.16696266        5       0.01726444      -0.02832160       0.01150294
Cu       9.91435147       5.82205694      12.16963577        5       0.01309570      -0.02638888      -0.03774410
Cu       3.53015714       8.02573949      12.15909967        5       0.00168420       0.00395521      -0.01062227
Cu       6.08765672       8.03167936      12.16322322        5       0.01046192       0.00304765      -0.00973680
Cu       8.64716044       8.03692772      12.17479950        5      -0.00347389      -0.01381518      -0.02599033
Cu      11.19754025       8.03322156      12.16622896        5      -0.00032573      -0.01394725      -0.02055933
Cu      -0.31160583      -0.10047889      14.19195688        4       0.02246199      -0.01210218       0.00600374
Cu       2.25070951      -0.10859730      14.20989453        4      -0.01131123       0.05641956      -0.06021030
Cu       4.81339832      -0.10998453      14.21569955        4      -0.03351646       0.06078226      -0.02577480
Cu       7.35595667      -0.10515833      14.21346076        4      -0.01947873       0.01128850      -0.08126362
Cu       0.96860695       2.10297456      14.18269975        4       0.01459104       0.01379894       0.04359871
Cu       3.52972733       2.09957237      14.19417427        4      -0.00971617      -0.00070744      -0.00163668
Cu       6.09343755       2.10286156      14.21386361        4      -0.05488967       0.01115922      -0.09159673
Cu       8.63840373       2.10606417      14.19877101        4      -0.01802308       0.03985071      -0.03568736
Cu       2.24178845       4.31033197      14.19126187        4       0.00572191       0.00159957       0.00169586
Cu       4.80506496       4.30688297      14.19541343        4      -0.03351860       0.03007198       0.00021385
Cu       7.36670357       4.32341042      14.20033251        4      -0.00617397      -0.00345764       0.00001535
Cu       9.91044003       4.32447065      14.20472792        4      -0.01297239      -0.02123090      -0.02632678
Cu       3.51025276       6.52566088      14.18851305        4       0.07085882      -0.02162785       0.07065614
Cu       6.08206559       6.53283364      14.19492671        4      -0.05431773      -0.01405442       0.02520474
Cu       8.64408299       6.53825316      14.21861933        4      -0.05552879      -0.03681185      -0.04103412
Cu      11.18260618       6.52943112      14.20483633        4      -0.00343946      -0.00608972       0.00263107
Cu       0.94972660       0.63196785      16.22205564        3       0.00069507       0.01159575      -0.04747476
Cu       3.50814247       0.62296200      16.23742375        3       0.00486105       0.00836017       0.00779053
Cu       6.06164061       0.62227261      16.24604196        3      -0.01262624       0.01124531       0.05199604
Cu       8.60500359       0.63141357      16.22076228        3       0.01407872       0.01835392       0.07763205
Cu       2.22526244       2.83018813      16.22482865        3       0.02304001       0.00159763      -0.01970752
Cu       4.77786774       2.81968242      16.22954307        3       0.01601189       0.04567644       0.05035795
Cu       7.34052814       2.84102807      16.23327474        3      -0.00058175      -0.00184004       0.03296110
Cu       9.89437070       2.84412325      16.23157717        3      -0.02515987      -0.02092153      -0.04060244
Cu       3.49409772       5.02834753      16.22273092        3       0.04869745       0.05885972      -0.01257502
Cu       6.06010647       5.03902248      16.21232428        3      -0.00940422       0.02895104       0.06928683
Cu       8.62515249       5.04768028      16.24725399        3      -0.04761782       0.00968166      -0.03709520
Cu      11.16563427       5.04379759      16.24107319        3       0.00420559       0.02099945      -0.04318476
Cu       4.77365656       7.26104522      16.21946259        3      -0.01230226      -0.05396025      -0.05634170
Cu       7.33059556       7.25872445      16.22947563        3       0.01252372      -0.01732220       0.01269794
Cu       9.88746444       7.25195207      16.25537305        3       0.02272728       0.03179109      -0.03516211
Cu      12.43489152       7.24974176      16.23333560        3      -0.00213507       0.00004226       0.00764231
Cu      -0.34503274       1.37121376      18.25247220        2      -0.02781711       0.04689863       0.05004980
Cu       2.20116077       1.36779104      18.26607896        2       0.04567495       0.01606428       0.02163262
Cu       4.75628192       1.36405331      18.29916817        2       0.01251511       0.01954127      -0.06004060
Cu       7.31057647       1.37779957      18.28611739        2       0.00513059      -0.00579912      -0.05466950
Cu       0.93738033       3.57432554      18.26836409        2      -0.01305930       0.01746120       0.08445951
Cu       3.47821441       3.57173326      18.27418530        2       0.00071571      -0.00700197       0.01273695
Cu       6.03006699       3.57962146      18.26764326        2       0.01755690      -0.01738615      -0.02015811
Cu       8.59521291       3.57628902      18.27553228        2       0.01720053       0.01465879       0.04134993
Cu       2.20226801       5.78477238      18.27805112        2       0.01297974      -0.00355394       0.00282190
Cu       4.75086022       5.78061355      18.24219582        2      -0.00019054      -0.00043425      -0.01895611
Cu       7.31641955       5.78795945      18.26092356        2       0.03407224      -0.02964592      -0.06132594
Cu       9.88167892       5.79318405      18.29453744        2      -0.03234202      -0.04364001      -0.00300152
Cu       3.47672651       8.00471071      18.24825236        2      -0.01759364      -0.00647716       0.04653332
Cu       6.03034422       8.00793543      18.23325310        2       0.02656309      -0.02467569       0.06204514
Cu       8.58998955       8.00195044      18.27547821        2      -0.00003969      -0.01275976       0.01611679
Cu      11.13813603       7.99682993      18.29269523        2       0.02410810       0.01196676      -0.00071581
Cu      -0.35721932      -0.08697026      20.26979826        1       0.00355438      -0.03779584       0.05368058
Cu       2.19192808      -0.10820849      20.31032465        1       0.05493108      -0.01076947      -0.01279142
Cu       4.74840755      -0.10713626      20.35409228        1       0.02395073      -0.02317346      -0.01497282
Cu       7.30346596      -0.08813063      20.32079342        1      -0.00747266      -0.06841706       0.02718223
Cu       0.92495773       2.09318822      20.32336712        1      -0.00987615       0.06536476       0.01272423
Cu       3.47043958       2.09367604      20.35345928        1       0.01125369       0.03621815      -0.03149330
Cu       6.02807800       2.11377556      20.35029346        1      -0.02203724      -0.03150821      -0.01292184
Cu       8.57618635       2.10271613      20.34101606        1       0.05658621       0.03969252      -0.02355770
Cu       2.19581383       4.30800356      20.34706961        1       0.03188071      -0.00626967      -0.03390599
Cu       4.75021080       4.31486605      20.31377568        1      -0.02636856      -0.02309639       0.01018338
Cu       7.29826300       4.30871644      20.31591986        1       0.05063441      -0.00147685      -0.01924827
Cu       9.86603326       4.30789907      20.34625928        1      -0.00268953      -0.02259335      -0.04584971
Cu       3.47464106       6.53074048      20.29206631        1      -0.02952952      -0.01471010       0.00424679
Cu       6.02605636       6.52732639      20.23809699        1       0.00527484      -0.00465087       0.04373087
Cu       8.58711863       6.51658457      20.32372122        1       0.01871480       0.02963795      -0.04107025
Cu      11.14332826       6.52354294      20.36715483        1      -0.01008692       0.01401776      -0.05253732
O       15.26336853       7.34384420      23.21697015        0       0.12081341      -0.02591315       0.01696051
C       16.29180984       6.76537248      23.28976541        0       0.47663981      -0.34757638       0.25091222
O       17.30814370       6.17030578      23.44180055        0      -0.55510467       0.35668987      -0.11549856
