99
Lattice="10.210621920333747 0.0 0.0 5.105310960166873 8.842657971447272 0.0 0.0 0.0 30.421172358872745" Properties=species:S:1:pos:R:3:tags:I:1:forces:R:3 energy=-440.2330017089844 free_energy=-440.2330017089844 stress="0.020917285233736038 2.4973414838314056e-06 -1.1082738637924194e-07 2.4973414838314056e-06 0.02086595818400383 -5.3324270993471146e-05 -1.1082738637924194e-07 -5.3324270993471146e-05 0.0126570425927639" pbc="T T F"
Cu       1.10391720       0.69072161      10.09748628        6      -0.03244063      -0.00384106      -0.01994593
Cu       3.65459853       0.68298711      10.10104962        6      -0.00580104       0.01972912      -0.02568336
Cu       6.20467723       0.70297945      10.09202298        6      -0.00573821      -0.01510985      -0.00898367
Cu       8.75865003       0.69775122      10.10432160        6      -0.03278598      -0.01011465      -0.03897496
Cu       2.37486838       2.90851394      10.07714437        6      -0.00503852      -0.02896550       0.02632016
Cu       4.92854463       2.90565399      10.08730271        6      -0.01818118       0.00292136       0.00387048
Cu       7.48546873       2.92009764      10.09522481        6      -0.02340949      -0.02329766      -0.01487653
Cu      10.03656471       2.90485240      10.09869625        6      -0.02276033       0.00067081      -0.01041806
Cu       3.64861456       5.11966503      10.08933510        6       0.00488357      -0.00270429       0.00558108
Cu       6.20645256       5.12490916      10.10070741        6      -0.01634047      -0.02073684      -0.03460786
Cu       8.77406184       5.12753981      10.09033268        6      -0.07280250      -0.04034309       0.02650796
Cu      11.31645850       5.11267777      10.09598667        6      -0.02657622       0.00171516       0.00144326
Cu       4.92523995       7.32919884      10.10776325        6      -0.01061916      -0.00869224      -0.04421561
Cu       7.48854646       7.32524241      10.10604547        6      -0.01725317      -0.01283217      -0.02545919
Cu      10.05127483       7.32197233      10.09142096        6      -0.06687986       0.00977505       0.02181445
Cu      12.58351369       7.33131214      10.07886973        6       0.00110880      -0.01285713       0.04267755
Cu      -0.20339082       1.41747220      12.14709033        5      -0.00304912      -0.01383870       0.02327286
Cu       2.35421353       1.41949351      12.13784335        5      -0.01380935      -0.02609217       0.08302943
Cu       4.90237577       1.42407546      12.14901817        5      -0.00126845      -0.01426896       0.03393601
Cu       7.45475533       1.43108034      12.14843203        5      -0.01456088      -0.04040868       0.03087483
Cu       1.07752411       3.62839715      12.15472703        5      -0.01750951      -0.00838733      -0.00528783
Cu       3.62813508       3.63736939      12.14138473        5      -0.02555959      -0.04010329       0.03818757
Cu       6.17860495       3.64043141      12.15092016        5      -0.01162006      -0.05587747       0.01354257
Cu       8.72998206       3.63484020      12.15536910        5       0.01113744      -0.01983939      -0.00701885
Cu       2.34862961       5.84202125      12.15468357        5      -0.01579256      -0.00383998      -0.01039581
Cu       4.90590442       5.83914580      12.16012591        5      -0.03708114       0.00079080      -0.01375103
Cu       7.44895557       5.83537189      12.16190793        5       0.04278651       0.01586827      -0.01475667
Cu      10.00721939       5.83624786      12.16097258        5       0.00358216       0.00364684      -0.01532345
Cu       3.61839392       8.04496716      12.15356692        5      -0.00720035       0.02154564       0.00047820
Cu       6.18413620       8.04100274      12.15452100        5      -0.01278016       0.04719827       0.03313958
Cu       8.74159509       8.04264766      12.16239154        5      -0.02245850       0.01601077      -0.00773372
Cu      11.28468495       8.05929664      12.15250910        5       0.00380270      -0.01839540       0.01437179
Cu      -0.24500256      -0.08793620      14.18918145        4       0.02432214       0.00639447       0.01813531
Cu       2.31974491      -0.10083118      14.20611146        4      -0.02825822       0.08476661      -0.04918858
Cu       4.87202403      -0.09156865      14.20939941        4      -0.02622024       0.04676004      -0.04648703
Cu       7.42080515      -0.08673282      14.21033759        4      -0.02780602       0.01369433      -0.09130867
Cu       1.03286255       2.11592976      14.18642670        4       0.01603244       0.01325412       0.01682492
Cu       3.58659316       2.11454776      14.19101174        4      -0.00600902       0.01352753      -0.00551995
Cu       6.14468585       2.11811855      14.19750886        4      -0.01459818       0.03211496      -0.02323720
Cu       8.69737221       2.11431910      14.19678578        4      -0.01169046       0.04937627      -0.03154421
Cu       2.30923793       4.32999043      14.19933951        4       0.01083142       0.02003779      -0.04965620
Cu       4.86778034       4.32842435      14.19126750        4      -0.01342340       0.00085222       0.01482805
Cu       7.42794996       4.33656978      14.19823833        4      -0.02352219      -0.00951158       0.00873781
Cu       9.96698811       4.33335149      14.20464887        4       0.00274105      -0.00415521      -0.01444697
Cu       3.58969749       6.54634747      14.19292041        4      -0.01616208      -0.01409366       0.03480960
Cu       6.14114766       6.55329405      14.20623779        4      -0.00518926      -0.01070377      -0.00413002
Cu       8.69655810       6.54470457      14.20767261        4      -0.00839920      -0.00553521       0.00125142
Cu      11.24717908       6.54919271      14.20079169        4      -0.00502984      -0.00883094      -0.00610848
Cu       0.98487517       0.64501269      16.22443833        3       0.01437928       0.00352226      -0.00389726
Cu       3.54116770       0.64328299      16.24508457        3       0.00489684      -0.00122878      -0.02006726
Cu       6.09358705       0.64726372      16.24212376        3       0.00577831       0.00010471       0.01777337
Cu       8.64715346       0.64992570      16.23349032        3       0.00294266      -0.01002670       0.00840585
Cu       2.26342008       2.84923244      16.22086515        3      -0.02455004      -0.02010565      -0.03272713
Cu       4.81757131       2.83774686      16.22838206        3       0.03946202       0.05731106      -0.02747981
Cu       7.37917863       2.85140010      16.22780854        3      -0.00299829       0.02405731       0.02418403
Cu       9.91608261       2.84918370      16.23349164        3       0.02990527       0.02738169      -0.01325056
Cu       3.54375339       5.05438230      16.22404105        3       0.03930319       0.05577663      -0.04449551
Cu       6.10715708       5.05858911      16.21608721        3      -0.01279641       0.03587915       0.09728456
Cu       8.64845598       5.06434606      16.25074663        3      -0.00424530      -0.00059363       0.00449592
Cu      11.19521720       5.05918229      16.22897563        3      -0.00198111       0.01753577       0.00075864
Cu       4.81384073       7.27644298      16.23046458        3       0.00648135       0.01168611      -0.01623067
Cu       7.36878259       7.27567449      16.24986648        3       0.01503947      -0.01280686      -0.01383076
Cu       9.91814523       7.27647429      16.23816553        3       0.03904219      -0.00519293       0.03381104
Cu      12.47081781       7.27844908      16.23183725        3       0.03784244       0.00145815      -0.00178423
Cu      -0.31766670       1.38450553      18.27535799        2      -0.03152126       0.07176656       0.04076445
Cu       2.22438190       1.38895247      18.27241324        2       0.03443004      -0.00467495       0.02855771
Cu       4.77824182       1.39266221      18.29574925        2       0.04088257      -0.00198440      -0.06018164
Cu       7.34052960       1.39827501      18.28213371        2       0.01236268       0.01415210       0.00616173
Cu       0.94758210       3.58764610      18.25891060        2      -0.00718320       0.05916078       0.09035396
Cu       3.49537971       3.58447856      18.24054273        2       0.05743561       0.02706293       0.09730200
Cu       6.06750815       3.59870539      18.25305801        2       0.02895661       0.01306954       0.04138231
Cu       8.61103810       3.59113915      18.29590301        2       0.05198053       0.04109511      -0.00842978
Cu       2.22805441       5.80827271      18.24362180        2       0.02285672      -0.01811777       0.07796036
Cu       4.78914784       5.81962598      18.24830932        2       0.02651862      -0.03309000      -0.02437667
Cu       7.34341327       5.82096591      18.30639985        2       0.02593080      -0.06044200      -0.11074772
Cu       9.89874942       5.81875094      18.28925684        2      -0.04082470      -0.06951735       0.00154456
Cu       3.50763177       8.03937482      18.26983106        2       0.01062303      -0.02688916      -0.06360467
Cu       6.06294452       8.03196768      18.26673941        2       0.01457582      -0.01670241       0.03960549
Cu       8.62576158       8.01977483      18.28420772        2      -0.02642373      -0.00146157       0.05736155
Cu      11.17182781       8.02156105      18.27772214        2      -0.01355259       0.02368161      -0.00267944
Cu      -0.32946985      -0.06171121      20.32442866        1       0.00879134      -0.03721137       0.01617459
Cu       2.22563321      -0.07084883      20.33414905        1       0.01093826      -0.05282322       0.01085397
Cu       4.77374727      -0.07261305      20.34163267        1       0.01743096      -0.03838366       0.01354728
Cu       7.31941294      -0.06774632      20.31594342        1       0.01968312       0.00965800       0.04066237
Cu       0.94418668       2.13091092      20.33695329        1      -0.00901359       0.02932056       0.00686313
Cu       3.48777713       2.12695443      20.34589874        1       0.02470131       0.02347024      -0.03712976
Cu       6.04253281       2.13807566      20.33341776        1       0.03223848      -0.00623710       0.01038607
Cu       8.59495101       2.13359563      20.38462966        1       0.05303591      -0.00360812      -0.11727981
Cu       2.23051610       4.33764528      20.29556553        1      -0.05159721      -0.01260485       0.00930802
Cu       4.76621655       4.33745514      20.25054417        1       0.01906526      -0.00710083       0.06365757
Cu       7.33006825       4.33987764      20.34726498        1       0.01361714      -0.00778360      -0.08158391
Cu       9.88739380       4.34381588      20.35289412        1       0.00960227      -0.03956996      -0.04732013
Cu       3.49036951       6.56573635      20.26642505        1       0.02402398      -0.01406568       0.01370719
Cu       6.05567528       6.57048535      20.31543075        1       0.00754028      -0.00117750      -0.06350567
Cu       8.61550063       6.55018972      20.37529620        1      -0.00804701       0.02581514      -0.09295815
Cu      11.16124894       6.54929267      20.33006455        1      -0.01890763       0.00872883      -0.01834921
O       13.45300074       6.59960912      23.54146026        0       0.09756291       0.03914744      -0.12039716
C       14.45223581       6.02592881      23.28889575        0       0.57063192      -0.54459095       0.28830439
O       15.45834207       5.39662752      23.16679271        0      -0.61245275       0.47986454       0.00656017
