99
Lattice="10.210621920333747 0.0 0.0 5.105310960166873 8.842657971447272 0.0 0.0 0.0 30.421172358872745" Properties=species:S:1:pos:R:3:tags:I:1:forces:R:3 energy=-440.02264404296875 free_energy=-440.02264404296875 stress="0.016803711652755737 4.199333488941193e-06 4.01865690946579e-07 4.199333488941193e-06 0.016690341755747795 -4.268065094947815e-05 4.01865690946579e-07 -4.268065094947815e-05 0.010109249502420425" pbc="T T F"
Cu       0.73332077       0.55282834      10.09721845        6       0.00137372      -0.00013654       0.00181015
Cu       3.28586721       0.55324841      10.09463627        6      -0.00201468      -0.00097575       0.00567851
Cu       5.83871631       0.55263440      10.09675160        6       0.00003866      -0.00066779       0.00173449
Cu       8.39205299       0.55285673      10.09842978        6      -0.00197362      -0.00128926       0.00164324
Cu       2.00992584       2.76316457      10.10056792        6      -0.00271299       0.00175914      -0.00165623
Cu       4.56151977       2.76350736      10.09877426        6       0.00081463      -0.00061271      -0.00270170
Cu       7.11502880       2.76228181      10.09898442        6      -0.00033119       0.00274543      -0.00347883
Cu       9.66866750       2.76241183      10.10053677        6      -0.00226507       0.00426425      -0.00188084
Cu       3.28660962       4.97348100      10.09973263        6      -0.00309515       0.00199946      -0.00333314
Cu       5.83856727       4.97326399      10.09560877        6      -0.00057163       0.00123068       0.00031742
Cu       8.39149396       4.97276826      10.09653599        6       0.00285691       0.00155511      -0.00247664
Cu      10.94492753       4.97362817      10.09904782        6      -0.00211958       0.00104633       0.00027749
Cu       4.56274695       7.18402599      10.09630914        6      -0.00035031       0.00200538       0.00137177
Cu       7.11520986       7.18391256      10.09288971        6      -0.00111745       0.00263140       0.00354177
Cu       9.66769890       7.18449019      10.09397017        6       0.00138878      -0.00027222       0.00292827
Cu      12.22179672       7.18423918      10.09884164        6      -0.00413197       0.00154274      -0.00216803
Cu      -0.54296095       1.28679378      12.16091373        5      -0.00272194      -0.00151166      -0.00294208
Cu       2.00811412       1.28715083      12.15992845        5      -0.00073097       0.00304143      -0.00741341
Cu       4.55953819       1.28715447      12.15757406        5      -0.00112878      -0.00090312      -0.00313388
Cu       7.11316317       1.28718320      12.15838363        5      -0.00065879      -0.00133703      -0.00214448
Cu       0.73231685       3.49853829      12.16294824        5      -0.00123770       0.00061111      -0.00533625
Cu       3.28372135       3.49808294      12.16140874        5      -0.00055154       0.00083355      -0.00022961
Cu       5.83602589       3.49772556      12.15806878        5      -0.00011129       0.00077064      -0.00008916
Cu       8.39003113       3.49808617      12.15896993        5      -0.00054055      -0.00043235       0.00129437
Cu       2.00925117       5.70861544      12.16082099        5      -0.00270483       0.00141853       0.00046723
Cu       4.56160105       5.70732510      12.15831743        5      -0.00089721       0.00378532      -0.00008703
Cu       7.11363417       5.70719766      12.15427950        5      -0.00194641       0.00283330       0.00478281
Cu       9.66614068       5.70913718      12.15671011        5      -0.00089997      -0.00115533       0.00309310
Cu       3.28694752       7.91842386      12.15852125        5      -0.00260798      -0.00064502       0.00005603
Cu       5.83863519       7.91848356      12.15562357        5      -0.00336919      -0.00269144       0.00167061
Cu       8.38882734       7.91884482      12.15398851        5      -0.00036574      -0.00081752      -0.00088842
Cu      10.94160854       7.91784117      12.15605629        5       0.00052952       0.00162562       0.00131440
Cu      -0.55183522      -0.20605203      14.19811516        4      -0.00087396       0.00074992       0.00041174
Cu       1.99557430      -0.19915759      14.19304585        4       0.00080744      -0.00301542       0.00285242
Cu       4.54583675      -0.20215132      14.19154160        4       0.00100148      -0.00160322       0.00178602
Cu       7.10309510      -0.20347727      14.19036665        4       0.00000989      -0.00093830       0.00664813
Cu       0.72036699       2.00956157      14.20198050        4       0.00031551      -0.00090629      -0.00008776
Cu       3.27174030       2.01115000      14.19963532        4      -0.00008871      -0.00209508       0.00074241
Cu       5.82229173       2.00998489      14.19505013        4       0.00179940      -0.00233734       0.00105462
Cu       8.37970515       2.00768777      14.19591264        4      -0.00042350      -0.00191617       0.00149424
Cu       1.99599073       4.22073017      14.20364997        4       0.00021303      -0.00115205       0.00022488
Cu       4.54777069       4.22024663      14.20021245        4       0.00103998      -0.00089753       0.00080683
Cu       7.09918841       4.21894794      14.19563840        4       0.00231739       0.00132876       0.00060472
Cu       9.65362177       4.22073664      14.19869129        4       0.00016570      -0.00123605       0.00088277
Cu       3.27672125       6.42745098      14.19971056        4      -0.00174134       0.00180684       0.00086500
Cu       5.82693039       6.42869013      14.19545733        4       0.00045577      -0.00056091       0.00188798
Cu       8.37466140       6.43050015      14.19243382        4       0.00310197       0.00141134       0.00067161
Cu      10.92987544       6.42856350      14.19714737        4       0.00121128       0.00176473       0.00054677
Cu       0.71677186       0.53505753      16.22785126        3      -0.00116761      -0.00128475      -0.00066878
Cu       3.26224810       0.53715905      16.22422037        3       0.00044850      -0.00195098       0.00127000
Cu       5.81334980       0.53047894      16.21612540        3       0.00051238       0.00111214       0.00131578
Cu       8.37268514       0.53074964      16.22123340        3      -0.00089777       0.00040738      -0.00046971
Cu       1.98648413       2.74881708      16.23252282        3       0.00153519      -0.00087812       0.00036818
Cu       4.53913558       2.74798411      16.22741273        3      -0.00011547      -0.00234029       0.00138078
Cu       7.09183225       2.74727196      16.21920240        3      -0.00022536      -0.00231193       0.00058383
Cu       9.64529325       2.74884294      16.22697290        3       0.00061187      -0.00253746      -0.00041724
Cu       3.26342545       4.95870422      16.23329420        3       0.00020725      -0.00231509       0.00068894
Cu       5.81535896       4.96012406      16.22922751        3       0.00200082      -0.00161876      -0.00442473
Cu       8.36671058       4.96328653      16.22163864        3       0.00009504      -0.00253578       0.00066293
Cu      10.92023533       4.95935766      16.23234010        3       0.00065335      -0.00200367      -0.00082818
Cu       4.54428301       7.16580975      16.22977138        3      -0.00002707      -0.00026257      -0.00159476
Cu       7.09381397       7.17022740      16.22506321        3      -0.00073064      -0.00014839       0.00031972
Cu       9.64174721       7.16768773      16.22107471        3       0.00042652      -0.00011608       0.00186176
Cu      12.19727315       7.16522832      16.22546771        3       0.00241934       0.00169765       0.00083953
Cu      -0.56526163       1.28145390      18.25382012        2       0.00204803      -0.00646680      -0.00166976
Cu       1.98318671       1.28662809      18.26729581        2      -0.00141997      -0.00117560       0.00175586
Cu       4.52957616       1.28159536      18.25889890        2      -0.00086468      -0.00084566      -0.00308522
Cu       7.07719452       1.28167386      18.23853990        2       0.00754673      -0.00166187      -0.00261022
Cu       0.70645788       3.49695981      18.26882587        2      -0.00107199      -0.00404818      -0.00593093
Cu       3.26062874       3.49653793      18.27034178        2      -0.00172025      -0.00343465      -0.00302665
Cu       5.81024149       3.49785502      18.25961114        2       0.00128037       0.00005519      -0.00209840
Cu       8.36153670       3.50536828      18.24715415        2      -0.00036954      -0.00049697       0.00029745
Cu       1.98244481       5.70698784      18.27004814        2      -0.00078516       0.00076043      -0.00002320
Cu       4.53706653       5.70577599      18.26955963        2      -0.00232588       0.00283170       0.00340031
Cu       7.08670616       5.71276003      18.26176228        2       0.00040446       0.00079255       0.00390266
Cu       9.63714803       5.71008148      18.26291368        2       0.00231713      -0.00047942      -0.00145742
Cu       3.26235558       7.91305561      18.25923064        2       0.00310200       0.00169105       0.00333834
Cu       5.81114435       7.91879095      18.26855225        2       0.00482399      -0.00172400      -0.00278983
Cu       8.36033927       7.91942331      18.26464577        2      -0.00120059      -0.00136830      -0.00611681
Cu      10.90831090       7.91339217      18.25685248        2      -0.00217395      -0.00460280      -0.00949012
Cu      -0.57423588      -0.18755700      20.32566919        1      -0.00165049       0.00185331      -0.00337954
Cu       1.98005623      -0.18794942      20.32745807        1       0.00267167      -0.00052939      -0.00165876
Cu       4.53056026      -0.19356550      20.32001765        1       0.00153955       0.00246389       0.00251653
Cu       7.07898539      -0.19555340      20.28678838        1       0.00427112       0.00198869      -0.00057971
Cu       0.70148349       2.02116824      20.32277797        1       0.00383967      -0.00089108       0.00157766
Cu       3.25676125       2.01967561      20.32449382        1       0.00088384      -0.00068266       0.00211781
Cu       5.80152483       2.02066807      20.29546525        1       0.00083684       0.00376031       0.00248527
Cu       8.35669423       2.02980483      20.25549283        1       0.00172774      -0.00140728       0.00283988
Cu       1.98310068       4.23129570      20.32722036        1       0.00035109      -0.00399132      -0.00008463
Cu       4.53617678       4.23241890      20.32621943        1       0.00628113      -0.00016829      -0.00309390
Cu       7.08755131       4.23870519      20.30605993        1      -0.00006792      -0.00027766       0.00767721
Cu       9.64051657       4.23467272      20.31256340        1       0.00051469      -0.00218370       0.00317273
Cu       3.25959965       6.44129605      20.32678760        1       0.00589223       0.00661739       0.00107612
Cu       5.81195309       6.44501854      20.32554066        1       0.00297161       0.00015581       0.00070418
Cu       8.36591021       6.44329088      20.32095448        1      -0.00209145      -0.00158559       0.00354917
Cu      10.91508108       6.43862116      20.32310413        1       0.00004209       0.00212698      -0.00057176
O       23.07129819      10.41471889      23.72300359        0       0.08932304      -0.05766753      -0.00565114
C       24.05285057       9.80967706      23.47257170        0      -0.12947600       0.08132149       0.00036326
O       25.03250757       9.20332097      23.22890828        0       0.02164028      -0.00631122      -0.00175712
