99
Lattice="10.210621920333747 0.0 0.0 5.105310960166873 8.842657971447272 0.0 0.0 0.0 30.421172358872745" Properties=species:S:1:pos:R:3:tags:I:1:forces:R:3 energy=-440.25506591796875 free_energy=-440.25506591796875 stress="0.01937505230307579 2.3385509848594666e-06 5.369074642658234e-07 2.3385509848594666e-06 0.019282527267932892 -5.158502608537674e-05 5.369074642658234e-07 -5.158502608537674e-05 0.011364187113940716" pbc="T T F"
Cu       0.77011376       0.60114073      10.09045340        6       0.01428892      -0.02119613       0.00987598
Cu       3.32069162       0.58990047      10.08611221        6      -0.00786456       0.01993776       0.03496908
Cu       5.87955854       0.60190572      10.07316638        6       0.01432301      -0.01043770       0.02591106
Cu       8.43459941       0.59674628      10.09049839        6      -0.01661102      -0.01578852       0.01106552
Cu       2.04356427       2.81891260      10.09209669        6       0.00463490      -0.04565300       0.00928475
Cu       4.60430190       2.79971232      10.09160853        6       0.00116772       0.03578770      -0.00656347
Cu       7.16179767       2.80994988      10.09268391        6      -0.03750559      -0.01180257      -0.00621591
Cu       9.69904623       2.80796153      10.08339068        6       0.03764069       0.02405288       0.02300692
Cu       3.32577622       5.02154661      10.09700694        6       0.01597486       0.00506966      -0.02202461
Cu       5.88233144       5.02377130      10.13771845        6      -0.02027074      -0.05120953      -0.11900815
Cu       8.42414777       5.02523843      10.08413166        6       0.02520096      -0.02204470       0.02337823
Cu      10.98135186       5.02667044      10.09182201        6      -0.01243516      -0.03312477      -0.00499284
Cu       4.60568813       7.22416406      10.12594778        6      -0.01831165       0.02087073      -0.08026670
Cu       7.15536068       7.23118523      10.11093189        6      -0.00372966       0.00509891      -0.01756640
Cu       9.70672504       7.23025256      10.09175781        6      -0.00978308       0.00515932      -0.00095421
Cu      12.25754168       7.23891907      10.07143241        6       0.02898415      -0.03454964       0.05599202
Cu      -0.49751447       1.33117817      12.14766108        5      -0.00408234      -0.01861653       0.01578641
Cu       2.04491105       1.32087180      12.15203756        5       0.05795643       0.01054174      -0.04911953
Cu       4.61131156       1.31468752      12.13319826        5      -0.00752366       0.02779694       0.03216303
Cu       7.16743511       1.33396085      12.15403892        5      -0.01471202      -0.03586286      -0.04940383
Cu       0.76633602       3.53169072      12.15871592        5       0.04981356       0.03078952      -0.06941845
Cu       3.33638674       3.54127902      12.13840255        5      -0.01313672      -0.03397032       0.03833846
Cu       5.89465273       3.53015864      12.16207833        5      -0.03662213       0.00043377      -0.01158168
Cu       8.43420936       3.53796873      12.15187144        5       0.01831578       0.01034103      -0.00085071
Cu       2.04732719       5.74165687      12.14230705        5       0.02097588       0.04155734       0.01840054
Cu       4.60919043       5.74669621      12.17047892        5      -0.00844452      -0.00431306      -0.04548238
Cu       7.16718015       5.74728359      12.16803878        5      -0.01301340      -0.00283368      -0.00641634
Cu       9.70187427       5.74072634      12.14471888        5       0.05367974       0.03356759       0.00751594
Cu       3.32906948       7.96121930      12.15761772        5       0.00684651      -0.00874895      -0.04944329
Cu       5.88141154       7.95713314      12.16584255        5       0.01313396       0.01909390      -0.03261422
Cu       8.43960209       7.95453131      12.16700036        5      -0.00842961       0.02061819      -0.10127556
Cu      10.99474938       7.96388387      12.13427133        5       0.00756763      -0.03179329       0.02246723
Cu      -0.48588979      -0.15138917      14.19850792        4       0.00168384      -0.01166256      -0.00456785
Cu       2.06057849      -0.17732031      14.19764727        4       0.02308419       0.06917500       0.00082827
Cu       4.61907222      -0.17948629      14.17919578        4       0.03118462       0.06655694       0.03040816
Cu       7.17856635      -0.16662080      14.18117606        4      -0.02706927       0.01664252       0.01643777
Cu       0.79585169       2.05239147      14.19189408        4      -0.02599857      -0.01734609       0.03539724
Cu       3.34246736       2.04367637      14.16775013        4      -0.00021511      -0.00156897       0.04642909
Cu       5.88226193       2.03552980      14.18486511        4       0.04953850       0.03007671      -0.00720713
Cu       8.44718542       2.05401911      14.19263136        4       0.00467031       0.00208327       0.01332544
Cu       2.06395467       4.25452050      14.18715462        4       0.00829508       0.02349468       0.01568978
Cu       4.61366083       4.26137911      14.19037058        4       0.03300099      -0.03923248      -0.00279032
Cu       7.17136836       4.25221696      14.20530097        4      -0.00399126       0.01116366      -0.00584993
Cu       9.72265743       4.26996755      14.19677097        4       0.00688758      -0.03468510       0.00027077
Cu       3.34592044       6.46833665      14.18539529        4      -0.02738692       0.00735539       0.02273024
Cu       5.89051377       6.46915543      14.20001735        4       0.01380443      -0.01534473       0.01188131
Cu       8.44669252       6.46439170      14.19703192        4      -0.00416808      -0.00408202       0.00442775
Cu      10.99501995       6.46540179      14.18292087        4       0.03576607       0.01189640      -0.00724560
Cu       0.81360108       0.57369329      16.23008402        3      -0.01504603      -0.00515406      -0.00996801
Cu       3.36371761       0.57291674      16.20555813        3       0.00181386      -0.02946325       0.02985632
Cu       5.91706824       0.56718106      16.20572257        3       0.02163514      -0.01181237       0.03410428
Cu       8.46973525       0.57732979      16.21704817        3      -0.00313580       0.01842871       0.02718564
Cu       2.09262188       2.77772935      16.22192283        3      -0.00619333       0.02645782      -0.05659626
Cu       4.63359694       2.77546596      16.20975847        3       0.01654651       0.04082937      -0.00087254
Cu       7.17552062       2.78011045      16.22510643        3       0.09170237       0.01472583      -0.00952109
Cu       9.74490376       2.79683209      16.22418152        3      -0.02160846      -0.06621313      -0.01696217
Cu       3.36647363       4.99022608      16.21213210        3      -0.00650934       0.03424675       0.03958486
Cu       5.91087600       4.98319102      16.23057700        3       0.03015849       0.04783838      -0.00492777
Cu       8.47661401       5.00204943      16.23536819        3      -0.08143233      -0.04618310      -0.01151581
Cu      11.02254456       5.00196214      16.23395463        3       0.04516421      -0.03487694      -0.08691210
Cu       4.64128754       7.20191373      16.22760215        3      -0.01092868       0.00530376      -0.05147832
Cu       7.18209382       7.19252025      16.22739006        3       0.03060265       0.02199141       0.01943780
Cu       9.73635067       7.20491600      16.22286452        3       0.04275495       0.01718227      -0.01999363
Cu      12.29388871       7.20288567      16.20079409        3       0.02726608       0.00476166       0.04706923
Cu      -0.42895673       1.31999755      18.26827565        2      -0.04805123      -0.02928080      -0.00821660
Cu       2.12337981       1.30685000      18.25289516        2      -0.00721875       0.00561403       0.07123606
Cu       4.68366740       1.32478715      18.23369518        2      -0.04100315      -0.05264498       0.07692350
Cu       7.22639248       1.33056825      18.26158943        2       0.01584008      -0.04251055      -0.02566700
Cu       0.84032934       3.51195559      18.25071944        2       0.01465430       0.07379722       0.09309350
Cu       3.39584359       3.53522828      18.24876799        2       0.03911094       0.00416639      -0.04165639
Cu       5.94691014       3.53301480      18.26392015        2       0.00666697       0.00038286       0.04531074
Cu       8.50398183       3.53499480      18.26947965        2      -0.04076053      -0.01523264       0.03643857
Cu       2.12850791       5.74259460      18.25034140        2       0.00781466      -0.00659432      -0.03126761
Cu       4.68319933       5.75129389      18.27184048        2      -0.04890348      -0.05285862      -0.00564576
Cu       7.22383291       5.73618306      18.28708315        2      -0.00833555      -0.01526122      -0.04467576
Cu       9.77944932       5.73857333      18.26122031        2      -0.00711698      -0.01599184       0.04574020
Cu       3.39211618       7.95092865      18.23848576        2       0.01181313       0.04376057       0.11652550
Cu       5.94343777       7.93257603      18.26888625        2      -0.00173087       0.07243346       0.00723109
Cu       8.49267037       7.94378503      18.25594233        2       0.02018508       0.02610119       0.02564568
Cu      11.05945923       7.94283280      18.24565864        2      -0.01646870       0.05062745      -0.03740403
Cu      -0.38126841      -0.14410269      20.32492722        1      -0.11415600      -0.03191667      -0.01126219
Cu       2.14218770      -0.16637208      20.31248532        1       0.09754465       0.05456752      -0.00527903
Cu       4.72034835      -0.15658524      20.28119438        1      -0.11001793       0.00603605      -0.04946413
Cu       7.26304938      -0.13648567      20.30265546        1       0.05002586      -0.04991401      -0.06801990
Cu       0.87484869       2.05786475      20.32081741        1       0.05478830       0.01111294      -0.00094428
Cu       3.44372127       2.07754325      20.27312665        1      -0.07158586      -0.10027158       0.04742350
Cu       5.99479591       2.05669124      20.32090254        1      -0.04711846       0.04488970      -0.06187145
Cu       8.53809752       2.06621110      20.32700208        1       0.00568675      -0.03162224      -0.00709563
Cu       2.16864391       4.27192901      20.27755752        1      -0.05716459      -0.00677264       0.11582685
Cu       4.71677918       4.26823535      20.31589627        1      -0.02110792       0.05102432       0.00936133
Cu       7.26729507       4.26740494      20.35467077        1      -0.02872656      -0.02034582      -0.05800568
Cu       9.82048647       4.26499515      20.33357123        1       0.00801060      -0.01175737      -0.04209566
Cu       3.43390980       6.50213378      20.30729028        1       0.02154454      -0.05581184       0.04134327
Cu       5.99637050       6.47796939      20.35152446        1      -0.05766572      -0.01776588      -0.01796396
Cu       8.55214969       6.45943257      20.31644926        1      -0.04486230       0.06715064       0.01862756
Cu      11.10625426       6.47083515      20.28863118        1      -0.06133923       0.01441627       0.02810835
O       20.12098112       9.39581926      23.54576161        0      -0.30523542       0.24161154       0.06879038
C       20.97871826       8.59730680      23.61217831        0       0.84760207      -0.64778376      -0.15585472
O       21.85778671       7.80281993      23.65871817        0      -0.48262179       0.35528067       0.07115135
