99
Lattice="10.210621920333747 0.0 0.0 5.105310960166873 8.842657971447272 0.0 0.0 0.0 30.421172358872745" Properties=species:S:1:pos:R:3:tags:I:1:forces:R:3 energy=-440.03106689453125 free_energy=-440.03106689453125 stress="0.016755197197198868 4.043802618980408e-06 3.310851752758026e-07 4.043802618980408e-06 0.01664689928293228 -4.305504262447357e-05 3.310851752758026e-07 -4.305504262447357e-05 0.010013553313910961" pbc="T T F"
Cu       0.72454304       0.55671655      10.09913735        6      -0.00126713       0.00030520       0.00229775
Cu       3.27697136       0.55612098      10.09995927        6       0.00087979       0.00122028      -0.00029769
Cu       5.82893206       0.55692664      10.10132186        6       0.00246941      -0.00065262      -0.00103834
Cu       8.38181936       0.55688020      10.10078748        6       0.00079706       0.00062851      -0.00016969
Cu       2.00079957       2.76719347      10.10054743        6       0.00109097       0.00026369      -0.00100674
Cu       4.55284509       2.76735050      10.10090387        6       0.00092041       0.00107275      -0.00024336
Cu       7.10550705       2.76794177      10.10124731        6       0.00041055       0.00024226      -0.00204129
Cu       9.65852921       2.76776328      10.09892175        6       0.00083601      -0.00040544       0.00222486
Cu       3.27648905       4.97853156      10.10206763        6       0.00083511      -0.00062304      -0.00038817
Cu       5.82866173       4.97921379      10.10199753        6       0.00179338      -0.00155265      -0.00108482
Cu       8.38197202       4.97859502      10.10088747        6      -0.00071452       0.00002467      -0.00009840
Cu      10.93474091       4.97816868      10.10090513        6       0.00137292      -0.00004438      -0.00050425
Cu       4.55236004       7.18933070      10.10235560        6       0.00095555      -0.00077318      -0.00180184
Cu       7.10557001       7.18920143      10.10112124        6      -0.00007975      -0.00254074      -0.00136433
Cu       9.65866391       7.18855134      10.10104436        6      -0.00006432      -0.00057649      -0.00102138
Cu      12.21049223       7.18910610      10.10194551        6       0.00226091      -0.00076155      -0.00040177
Cu      -0.54920989       1.28924583      12.15990469        5      -0.00041517      -0.00043809       0.00080278
Cu       2.00335574       1.28744625      12.16061938        5      -0.00036509       0.00068352       0.00176243
Cu       4.55433075       1.28779467      12.16142209        5       0.00183367       0.00029257      -0.00118607
Cu       7.10735176       1.28856234      12.16121266        5       0.00017269       0.00036576       0.00014323
Cu       0.72748895       3.49898771      12.16071186        5      -0.00002851      -0.00091247       0.00200566
Cu       3.27871667       3.49910650      12.16219598        5       0.00075782      -0.00063831      -0.00031355
Cu       5.83070791       3.49972199      12.16106208        5       0.00047904      -0.00083742       0.00020187
Cu       8.38463465       3.49962764      12.16055058        5      -0.00060373      -0.00040567      -0.00001587
Cu       2.00183677       5.70979419      12.16318340        5       0.00108479      -0.00006454       0.00002936
Cu       4.55351110       5.71076678      12.16339721        5       0.00153994      -0.00037504      -0.00095371
Cu       7.10674477       5.71046370      12.16214506        5      -0.00008336      -0.00092645      -0.00223065
Cu       9.66076814       5.70919712      12.16200035        5       0.00052730      -0.00028854      -0.00028144
Cu       3.27700427       7.92145821      12.16276647        5       0.00208655      -0.00114613      -0.00063926
Cu       5.83023271       7.92090915      12.16144914        5       0.00068024       0.00012327      -0.00057912
Cu       8.38396675       7.91914400      12.16080373        5      -0.00013106       0.00073036      -0.00111005
Cu      10.93608005       7.92001135      12.16280940        5       0.00145915      -0.00041797      -0.00154719
Cu      -0.55772133      -0.20361328      14.19929684        4       0.00048288      -0.00166679       0.00082065
Cu       1.99883266      -0.20952070      14.19872098        4      -0.00156458       0.00165923      -0.00003227
Cu       4.54908241      -0.20888304      14.20003064        4      -0.00129038       0.00072365      -0.00079444
Cu       7.10004004      -0.20474008      14.20244554        4      -0.00021647      -0.00139114      -0.00050777
Cu       0.72440087       2.00389640      14.19955210        4      -0.00094117      -0.00146504       0.00054649
Cu       3.27587866       2.00377365      14.20049189        4      -0.00126821      -0.00132127       0.00050940
Cu       5.82563583       2.00470182      14.19941540        4      -0.00117035      -0.00031601       0.00005651
Cu       8.37976073       2.00398167      14.19796637        4      -0.00105289       0.00009368       0.00093215
Cu       1.99978603       4.21415411      14.20259103        4      -0.00091963      -0.00026071       0.00012996
Cu       4.55103864       4.21584702      14.20079296        4      -0.00165297      -0.00013691       0.00118579
Cu       7.10259491       4.21539438      14.19823964        4      -0.00099431       0.00046801       0.00046315
Cu       9.65802078       4.21169026      14.19929036        4      -0.00107353       0.00216074       0.00061897
Cu       3.27124006       6.42816008      14.20270618        4      -0.00024781      -0.00137069       0.00082382
Cu       5.82397218       6.42831022      14.20130843        4      -0.00007550      -0.00125092      -0.00040382
Cu       8.38027050       6.42266736      14.19926746        4      -0.00175671       0.00112515      -0.00021271
Cu      10.93219442       6.42416810      14.20372002        4      -0.00100400      -0.00034265      -0.00067087
Cu       0.71722691       0.52605943      16.22547928        3      -0.00013412      -0.00044707       0.00104566
Cu       3.26376764       0.52664647      16.22742763        3       0.00034645       0.00051061       0.00134281
Cu       5.81222039       0.52773946      16.22466505        3       0.00010412      -0.00103485       0.00021295
Cu       8.37251070       0.52755455      16.22695783        3      -0.00068013      -0.00144913      -0.00021142
Cu       1.99361163       2.73787412      16.23094837        3      -0.00130726      -0.00039855       0.00079678
Cu       4.53964989       2.74090982      16.23005331        3       0.00148602      -0.00001438       0.00025922
Cu       7.09338861       2.74168774      16.22275753        3      -0.00044327      -0.00124756      -0.00010166
Cu       9.65051703       2.73642928      16.22635040        3       0.00018044       0.00072242      -0.00007898
Cu       3.26571941       4.95146692      16.23376497        3       0.00061540       0.00003380       0.00011064
Cu       5.81710021       4.95268903      16.22826983        3       0.00115168      -0.00012685       0.00102626
Cu       8.37309724       4.95040801      16.22401529        3      -0.00064238       0.00145904       0.00017092
Cu      10.92665461       4.94634223      16.23061752        3      -0.00107197       0.00226024       0.00178943
Cu       4.54335716       7.16026205      16.23020848        3      -0.00011291       0.00038689       0.00019020
Cu       7.09551158       7.15950896      16.22839053        3      -0.00014697       0.00071195       0.00027548
Cu       9.64516934       7.15866164      16.22784715        3      -0.00018946      -0.00028750       0.00012195
Cu      12.19878976       7.15974824      16.23295778        3       0.00072361       0.00012845      -0.00050859
Cu      -0.55783324       1.27086877      18.25458920        2      -0.00241049       0.00089626       0.00035802
Cu       1.98700952       1.27724270      18.26830832        2      -0.00182521       0.00183419      -0.00069078
Cu       4.53095591       1.27465337      18.26278202        2       0.00082498       0.00073535      -0.00125446
Cu       7.08146177       1.27388374      18.24176985        2      -0.00172407       0.00179886      -0.00067040
Cu       0.71080976       3.48625551      18.26710533        2      -0.00197024       0.00036162       0.00074323
Cu       3.26271700       3.48891782      18.27099921        2       0.00126873      -0.00101641       0.00134730
Cu       5.81372882       3.49155853      18.26064226        2      -0.00174852      -0.00106850       0.00041286
Cu       8.36583522       3.49633434      18.24862398        2      -0.00019337       0.00202681      -0.00263848
Cu       1.98465527       5.69842793      18.27232202        2       0.00182916       0.00157523       0.00071180
Cu       4.53941033       5.69970040      18.27106232        2       0.00016147       0.00031523      -0.00274092
Cu       7.09054854       5.70318156      18.26431270        2       0.00092641      -0.00019687      -0.00011714
Cu       9.64226328       5.70070614      18.26421561        2      -0.00038916      -0.00074049      -0.00116903
Cu       3.26707741       7.90620102      18.26295898        2      -0.00076621      -0.00014500      -0.00018990
Cu       5.81700204       7.90956221      18.26808305        2      -0.00164671      -0.00079766       0.00256811
Cu       8.36438974       7.90964964      18.26705892        2      -0.00113987       0.00097023      -0.00071519
Cu      10.91130239       7.90550964      18.25990495        2      -0.00124190       0.00045337       0.00063980
Cu      -0.56823324      -0.19448886      20.32578199        1      -0.00039382       0.00143255       0.00124715
Cu       1.98646554      -0.19514333      20.32797488        1      -0.00349655      -0.00067659       0.00095270
Cu       4.53522080      -0.19963811      20.32303394        1      -0.00035711       0.00000853       0.00061072
Cu       7.08308909      -0.20308989      20.28892821        1      -0.00091542       0.00227209      -0.00195329
Cu       0.70825089       2.01394016      20.32472196        1      -0.00252892      -0.00091899      -0.00041757
Cu       3.26161505       2.01336397      20.32779242        1      -0.00090457      -0.00037720      -0.00124391
Cu       5.80573312       2.01506685      20.29747051        1      -0.00107994       0.00197214      -0.00171280
Cu       8.36165360       2.02319927      20.24938087        1      -0.00283032       0.00251256      -0.00387449
Cu       1.98733071       4.22278053      20.32803168        1      -0.00069052       0.00394235      -0.00023149
Cu       4.54120798       4.22630576      20.32599631        1       0.00147499       0.00045929      -0.00072022
Cu       7.09145654       4.23131584      20.31023236        1      -0.00077437      -0.00000980       0.00668585
Cu       9.64518885       4.22820098      20.31188692        1       0.00099181      -0.00049581       0.00155567
Cu       3.26408765       6.43538980      20.32851591        1       0.00271670       0.00011008       0.00280612
Cu       5.81689427       6.43835143      20.32866847        1       0.00116800      -0.00010732      -0.00391308
Cu       8.36946848       6.43575581      20.32477069        1       0.00107845      -0.00270198      -0.00244161
Cu      10.91864637       6.43244906      20.32481272        1       0.00176614      -0.00210917       0.00167210
O       23.02451422      10.33466812      23.74826053        0       0.00544160      -0.00556048       0.00160855
C       24.06859172       9.92694636      23.38378832        0      -0.00120176       0.00046373       0.00619083
O       25.11805848       9.51546355      23.03985744        0       0.00395662       0.00329397      -0.00246967
