99
Lattice="10.210621920333747 0.0 0.0 5.105310960166873 8.842657971447272 0.0 0.0 0.0 30.421172358872745" Properties=species:S:1:pos:R:3:tags:I:1:forces:R:3 energy=-440.0316162109375 free_energy=-440.0316162109375 stress="0.016766153275966644 4.022382199764252e-06 3.189779818058014e-07 4.022382199764252e-06 0.016660943627357483 -4.2980536818504333e-05 3.189779818058014e-07 -4.2980536818504333e-05 0.010035164654254913" pbc="T T F"
Cu       0.72836804       0.55419080      10.10141874        6       0.00019247      -0.00037720      -0.00104135
Cu       3.28060776       0.55435070      10.09526112        6      -0.00069671      -0.00100802       0.00086276
Cu       5.83516607       0.55208151      10.09502356        6      -0.00238858       0.00402426       0.00251159
Cu       8.38865714       0.55370017      10.10012185        6      -0.00373933      -0.00131945       0.00150640
Cu       2.00544302       2.76569473      10.09891078        6      -0.00042821      -0.00142789       0.00015122
Cu       4.55822579       2.76455752      10.09634447        6      -0.00149914      -0.00006935       0.00404941
Cu       7.11090166       2.76378081      10.09676006        6      -0.00338170      -0.00000663       0.00486353
Cu       9.66354439       2.76477249      10.10067254        6      -0.00100236      -0.00233727       0.00147764
Cu       3.28146289       4.97493340      10.10136463        6       0.00254405       0.00172083      -0.00224017
Cu       5.83404296       4.97453161      10.10022946        6      -0.00250496       0.00101145      -0.00183976
Cu       8.38634997       4.97396847      10.09892266        6      -0.00197017       0.00210880      -0.00141898
Cu      10.93988569       4.97541124      10.09904178        6      -0.00079337      -0.00007494       0.00121244
Cu       4.55840640       7.18544191      10.10073426        6      -0.00355457       0.00044919       0.00052922
Cu       7.10913861       7.18512586      10.09739555        6      -0.00040198       0.00121115       0.00046347
Cu       9.66245755       7.18455717      10.09724693        6       0.00103858       0.00262887      -0.00435182
Cu      12.21670522       7.18493765      10.09986334        6       0.00113487       0.00209598       0.00000630
Cu      -0.54857838       1.28698073      12.16474252        5       0.00221712       0.00342273      -0.00698918
Cu       2.00392881       1.28954598      12.15837529        5       0.00148110      -0.00387389       0.00066013
Cu       4.55654818       1.28638830      12.15450832        5      -0.00204015       0.00200192       0.00213635
Cu       7.10939236       1.28659994      12.15801871        5      -0.00225696       0.00208107       0.00027272
Cu       0.72889878       3.49791497      12.16052131        5       0.00045870       0.00081629       0.00189432
Cu       3.28200977       3.49898902      12.16137904        5      -0.00060198      -0.00126724       0.00007885
Cu       5.83173640       3.49852285      12.15935900        5       0.00033706      -0.00176663       0.00170067
Cu       8.38381400       3.49703663      12.16007336        5       0.00112343       0.00096763      -0.00376227
Cu       2.00592017       5.70865321      12.16257124        5      -0.00269062       0.00095615      -0.00115965
Cu       4.55656664       5.70980568      12.16285726        5       0.00003391      -0.00276585       0.00258724
Cu       7.10809200       5.70904928      12.15995928        5      -0.00033568      -0.00298654      -0.00320584
Cu       9.66138654       5.70707456      12.15753433        5       0.00284187       0.00304165       0.00043446
Cu       3.28200476       7.91981196      12.16336768        5      -0.00189974      -0.00029883      -0.00200874
Cu       5.83214385       7.91829477      12.16192935        5       0.00154717       0.00296608      -0.00552528
Cu       8.38464495       7.91798786      12.15367647        5      -0.00068013       0.00191435       0.00309176
Cu      10.93918380       7.91854082      12.15686911        5      -0.00157184      -0.00030233      -0.00159442
Cu      -0.55295373      -0.20212041      14.20501106        4      -0.00410505      -0.00118089      -0.00522490
Cu       1.99769491      -0.20140470      14.19266299        4      -0.00101607      -0.00263412       0.00127786
Cu       4.54469751      -0.20684306      14.18983214        4       0.00146284       0.00385023       0.00393711
Cu       7.09786002      -0.20371998      14.19779260        4       0.00129899      -0.00118324      -0.00062881
Cu       0.72267615       2.00841674      14.20274208        4      -0.00172660      -0.00114818      -0.00196782
Cu       3.27370855       2.00692406      14.19717650        4      -0.00140583      -0.00043149       0.00080280
Cu       5.82066402       2.00530887      14.19434859        4      -0.00003406       0.00163892       0.00063558
Cu       8.37381648       2.00728534      14.19987823        4       0.00361509      -0.00053054      -0.00364352
Cu       1.99691496       4.21800267      14.20204395        4      -0.00110241      -0.00060056       0.00051748
Cu       4.54892031       4.22014697      14.20388329        4      -0.00151639      -0.00138775      -0.00185165
Cu       7.09977863       4.21745996      14.19924172        4      -0.00148285      -0.00104808      -0.00227584
Cu       9.65323695       4.21723300      14.19515380        4       0.00068281      -0.00051079       0.00380957
Cu       3.27200491       6.43086863      14.20557505        4      -0.00050148      -0.00185118      -0.00351112
Cu       5.82594670       6.42759956      14.20276120        4      -0.00221470       0.00112738      -0.00418711
Cu       8.37726977       6.42756089      14.19482924        4      -0.00103195      -0.00130052      -0.00033123
Cu      10.92798168       6.42837836      14.19597218        4       0.00156234      -0.00172008       0.00188733
Cu       0.71630836       0.53011157      16.22883325        3      -0.00177594       0.00068791      -0.00241647
Cu       3.26154504       0.53159692      16.22380131        3      -0.00090491      -0.00113051       0.00038797
Cu       5.80661685       0.52981112      16.21982577        3       0.00206721       0.00006521      -0.00099662
Cu       8.36454559       0.52950016      16.22457242        3       0.00959375       0.00281389      -0.00152942
Cu       1.98671480       2.74411234      16.23252811        3       0.00121194       0.00019329      -0.00269471
Cu       4.53462760       2.74406118      16.22800298        3       0.00104104      -0.00064852       0.00054411
Cu       7.08554859       2.74137468      16.22131377        3       0.00443097       0.00359716      -0.00109116
Cu       9.64575904       2.74258443      16.22484970        3      -0.00122528      -0.00150029       0.00003738
Cu       3.26001405       4.95426990      16.23447250        3       0.00176890       0.00044588      -0.00031105
Cu       5.81685298       4.95398755      16.23189552        3      -0.00353467       0.00145449      -0.00340570
Cu       8.36581276       4.95701053      16.22117224        3       0.00152511      -0.00170629       0.00098354
Cu      10.91818657       4.95590535      16.22992271        3       0.00209285      -0.00252732      -0.00169478
Cu       4.54103571       7.16299996      16.23116649        3      -0.00017175      -0.00120657       0.00000307
Cu       7.09223661       7.16491414      16.22351092        3       0.00131937       0.00217282       0.00375481
Cu       9.64268912       7.16367572      16.22114505        3      -0.00198489      -0.00129176       0.00105518
Cu      12.19469608       7.16353559      16.22980499        3       0.00027367      -0.00191423      -0.00055704
Cu      -0.56636157       1.27467933      18.25338571        2       0.00168364       0.00220665      -0.00054387
Cu       1.98108801       1.28147894      18.26758218        2       0.00105334       0.00030513       0.00074530
Cu       4.52698009       1.27704672      18.25932796        2      -0.00093677       0.00221858       0.00413980
Cu       7.07738842       1.27720726      18.24199527        2      -0.00782102      -0.00033949      -0.00413678
Cu       0.70433693       3.49060619      18.26489950        2      -0.00073714       0.00161306       0.00737335
Cu       3.25692387       3.49102527      18.27098329        2       0.00285130       0.00186922      -0.00190130
Cu       5.80746748       3.49333774      18.26102213        2       0.00057008      -0.00070916      -0.00107299
Cu       8.35925421       3.49991308      18.24653683        2       0.00231144      -0.00059594       0.00050738
Cu       1.98033056       5.70306419      18.27303419        2      -0.00152470      -0.00286092      -0.00765293
Cu       4.53306274       5.70218591      18.26979749        2       0.00419791      -0.00193097       0.00064182
Cu       7.08588874       5.70661804      18.26226475        2       0.00069682       0.00219305       0.00270722
Cu       9.63668127       5.70472827      18.26152886        2      -0.00215035       0.00002843       0.00149618
Cu       3.26139171       7.90835483      18.26096698        2      -0.00210980       0.00248827       0.00324756
Cu       5.81148901       7.91297931      18.26697573        2      -0.00039289      -0.00190127       0.00281728
Cu       8.35677090       7.91465745      18.26320140        2       0.00664143      -0.00366711       0.00080804
Cu      10.90378503       7.90854169      18.25518241        2       0.00591330       0.00172880       0.00848631
Cu      -0.57478131      -0.19149626      20.32354210        1       0.00198183       0.00130104       0.00297018
Cu       1.98030829      -0.19262227      20.32704042        1      -0.00283222      -0.00030140      -0.00092639
Cu       4.52990899      -0.19593045      20.32106263        1      -0.00190913      -0.00218947      -0.00282747
Cu       7.07676823      -0.19826766      20.28641122        1       0.00479598      -0.00128617       0.00350508
Cu       0.70134227       2.01666499      20.32192545        1      -0.00032346       0.00050531       0.00124629
Cu       3.25612483       2.01488963      20.32525767        1      -0.00339955       0.00288801       0.00174667
Cu       5.79823024       2.01878131      20.29759131        1       0.00776411      -0.00404546       0.00135906
Cu       8.35535278       2.02607333      20.25545423        1      -0.00112813       0.00023168      -0.00553385
Cu       1.98210813       4.22597416      20.32750207        1      -0.00221806       0.00330765      -0.00255573
Cu       4.53539577       4.22911342      20.32485109        1       0.00075156       0.00022087       0.00117897
Cu       7.08645953       4.23304554      20.30903018        1       0.00131732       0.00517978      -0.00262911
Cu       9.64048475       4.23051001      20.31009260        1      -0.00057869       0.00045937       0.00137365
Cu       3.26104726       6.43926989      20.32944565        1      -0.00505024      -0.00200047      -0.00128030
Cu       5.81268119       6.44047801      20.32295861        1      -0.00092708       0.00101570       0.00606413
Cu       8.36512306       6.43953866      20.31985430        1       0.00050312      -0.00407446       0.00429236
Cu      10.91452266       6.43759665      20.32173589        1       0.00117188      -0.00786469       0.00212789
O       23.12451784      10.41000731      23.75153118        0       0.00626099      -0.01178781       0.00262440
C       24.12975211       9.87783899      23.44230535        0      -0.00698274       0.01389780      -0.00199188
O       25.13805765       9.34577034      23.14549077        0       0.00182800      -0.00222771      -0.00507722
