99
Lattice="10.210621920333747 0.0 0.0 5.105310960166873 8.842657971447272 0.0 0.0 0.0 30.421172358872745" Properties=species:S:1:pos:R:3:tags:I:1:forces:R:3 energy=-440.2452392578125 free_energy=-440.2452392578125 stress="0.019593581557273865 3.1855888664722443e-06 4.316680133342743e-07 3.1855888664722443e-06 0.01950044371187687 -4.910863935947418e-05 4.316680133342743e-07 -4.910863935947418e-05 0.011927952989935875" pbc="T T F"
Cu       1.22914225       0.73331561      10.08903749        6      -0.04848229      -0.01052821      -0.02396517
Cu       3.77119428       0.71939922      10.10363126        6       0.00525317       0.02493606      -0.03782630
Cu       6.32070363       0.73564014      10.08983111        6       0.00380926      -0.00364639      -0.00418383
Cu       8.87304453       0.73764434      10.08455871        6       0.01467200      -0.01371028      -0.01094864
Cu       2.48910565       2.94200130      10.08275406        6       0.01723219       0.00458268       0.01402567
Cu       5.04247455       2.93420908      10.08097057        6      -0.00967974       0.03234503       0.01218385
Cu       7.59922178       2.94882695      10.08004387        6      -0.01375107      -0.00805772       0.00951911
Cu      10.14720872       2.94491267      10.09101294        6       0.02185209      -0.00821446      -0.01688078
Cu       3.76240389       5.15563640      10.07132274        6       0.01069183       0.00941850       0.04616698
Cu       6.31757373       5.15635153      10.07708577        6       0.01007155      -0.01567471       0.00624548
Cu       8.87997897       5.15199160      10.08928122        6      -0.03274574       0.00396300       0.01975489
Cu      11.42320723       5.15342231      10.10229904        6       0.01705525      -0.00020649      -0.02494770
Cu       5.05075682       7.36920212      10.07852663        6      -0.03986237      -0.00200293      -0.00642173
Cu       7.60181471       7.36137717      10.09799161        6       0.00826225      -0.01706541      -0.03083425
Cu      10.15741323       7.35903374      10.10613377        6      -0.03275325       0.00343078      -0.01682795
Cu      12.69632890       7.37155872      10.08647662        6       0.03520161      -0.02265670       0.01522923
Cu      -0.04865795       1.46556599      12.13593341        5      -0.02104563      -0.01218629       0.08182552
Cu       2.49671163       1.46657292      12.14139067        5      -0.00340434       0.00102136       0.07133222
Cu       5.04567654       1.47159688      12.14748943        5      -0.00166495      -0.00323942       0.03944641
Cu       7.60683204       1.47270162      12.14466713        5      -0.01874429      -0.03526260       0.04565054
Cu       1.21928100       3.67741880      12.15220684        5       0.00219866      -0.00759251       0.01843376
Cu       3.77435103       3.69097239      12.13911426        5      -0.01656119      -0.02840265       0.01600164
Cu       6.32723801       3.67747135      12.13622440        5      -0.02207981      -0.01115650       0.04127635
Cu       8.87957905       3.66770610      12.15360186        5      -0.00124713       0.01535509      -0.00204295
Cu       2.49221587       5.89155889      12.15194834        5       0.00629723       0.00683151      -0.01199514
Cu       5.05310440       5.89880863      12.13647681        5      -0.05419425      -0.04844356      -0.01266421
Cu       7.59666512       5.87876110      12.15120408        5       0.02130620       0.00118853      -0.02136345
Cu      10.14926095       5.87940228      12.16353800        5       0.00151242       0.00687321      -0.01160633
Cu       3.77363829       8.10274653      12.14095120        5      -0.03347183       0.00421804       0.02291911
Cu       6.32319036       8.09045105      12.14087556        5       0.00294959       0.04270630       0.03623488
Cu       8.87173347       8.09037108      12.15939256        5       0.00682594       0.01163745      -0.00334687
Cu      11.42581181       8.10791701      12.15326405        5       0.01547778      -0.01790026       0.04087450
Cu      -0.06494726      -0.02775296      14.18373005        4       0.00344246       0.03652156      -0.00036563
Cu       2.48103849      -0.03414861      14.19290861        4      -0.00558256       0.07382021      -0.05136615
Cu       5.02514583      -0.02377256      14.19515454        4       0.05495842       0.02147652       0.01062089
Cu       7.59191230      -0.03160522      14.21087290        4      -0.01733027       0.04456788      -0.12702630
Cu       1.20959955       2.18642413      14.19196167        4      -0.00393667      -0.00654830      -0.00257614
Cu       3.75504113       2.19421963      14.18650046        4       0.00789728      -0.00209020      -0.00774218
Cu       6.32075980       2.17726353      14.19042825        4      -0.04051004       0.04006733      -0.03023016
Cu       8.87012002       2.17494306      14.19953951        4       0.01716466       0.00514001      -0.02955106
Cu       2.48278683       4.39694464      14.19409870        4       0.00426740       0.02889324      -0.00685341
Cu       5.04243310       4.40451104      14.17945975        4      -0.02338761      -0.05662247      -0.01284679
Cu       7.60148395       4.38876242      14.18674954        4      -0.03026025      -0.00193175       0.00313096
Cu      10.13987866       4.38467935      14.20878863        4       0.03982330       0.04248495      -0.04723008
Cu       3.76547709       6.61542081      14.18348716        4      -0.03490924      -0.02953238      -0.00369131
Cu       6.31082732       6.60051483      14.18045808        4       0.03945639       0.03045200      -0.00014142
Cu       8.87076776       6.60151695      14.19530023        4      -0.00699703      -0.00203456       0.00453192
Cu      11.41637383       6.60923830      14.19448287        4       0.00764298       0.00732997       0.03265857
Cu       1.19428733       0.71583315      16.22218761        3       0.01935738      -0.00264251      -0.00882708
Cu       3.74058202       0.72455498      16.22057658        3       0.01631431      -0.01025182       0.00329781
Cu       6.30234179       0.71818184      16.22916731        3      -0.01824617      -0.04211501      -0.00481007
Cu       8.86844056       0.70512188      16.23289578        3      -0.01224466       0.00649453      -0.00027826
Cu       2.46726136       2.93158709      16.23028119        3       0.03202249      -0.00409026      -0.04218662
Cu       5.02263048       2.91910899      16.21623705        3       0.00724674       0.03178203      -0.01270213
Cu       7.58446764       2.91729086      16.22132060        3       0.00340281       0.00327068       0.00633367
Cu      10.14011899       2.92129351      16.23795458        3      -0.02179544       0.00208439      -0.02054552
Cu       3.75576546       5.13738084      16.21656419        3      -0.01974245      -0.01984203       0.02471672
Cu       6.30272233       5.12899497      16.20040319        3       0.02304007       0.00641061       0.11060022
Cu       8.85059524       5.13106575      16.22847152        3       0.00703295       0.00703174       0.00718166
Cu      11.40765847       5.14375701      16.23598567        3       0.01302380      -0.00649270      -0.04353735
Cu       5.03349350       7.33804974      16.21106918        3      -0.00653334       0.03251046       0.07223762
Cu       7.57020486       7.34695067      16.21035794        3       0.03444651      -0.01317821       0.02994203
Cu      10.12402748       7.34714897      16.23548842        3       0.05670049       0.02550279      -0.10599202
Cu      12.69933526       7.34564976      16.22868037        3      -0.06426717      -0.01925451       0.01537944
Cu      -0.07437386       1.45108809      18.27018694        2      -0.02112759       0.03255454       0.00718840
Cu       2.46340863       1.46535718      18.26936995        2       0.04500356      -0.00094515      -0.01300219
Cu       5.01472448       1.46455771      18.26764089        2       0.01633421      -0.02617214       0.01492581
Cu       7.57334614       1.45298793      18.26137539        2       0.01453926       0.01378962       0.01536444
Cu       1.19968244       3.67316522      18.27195123        2      -0.00859555       0.01361529       0.01117275
Cu       3.74145618       3.66348263      18.26345034        2       0.02760851       0.02510849      -0.00651491
Cu       6.30028564       3.66428643      18.24149969        2       0.00803628       0.02150718       0.03082080
Cu       8.85836697       3.67270329      18.26400031        2      -0.00981736      -0.00536722      -0.04909760
Cu       2.47346268       5.87893852      18.27181097        2       0.01439363       0.00002683       0.00287452
Cu       5.02086016       5.88161117      18.25592331        2       0.01917869      -0.00870278      -0.02075350
Cu       7.57002493       5.89916563      18.25606606        2       0.01872261      -0.07023538      -0.04201453
Cu      10.12983709       5.89525431      18.26541345        2      -0.00439782      -0.04131836       0.02608347
Cu       3.74935713       8.08643837      18.27511804        2       0.01900038       0.01733629      -0.02742628
Cu       6.30567254       8.09589016      18.25558343        2      -0.03757977       0.01227908      -0.00068967
Cu       8.84771818       8.09702045      18.24699475        2       0.01755040       0.03755682       0.11482698
Cu      11.40461648       8.08621649      18.26494796        2       0.00545917       0.04385887       0.03171104
Cu      -0.06874639       0.00001676      20.32954918        1      -0.00469960      -0.01531432      -0.01040822
Cu       2.47965987       0.00041721      20.31176944        1       0.04098832      -0.01117663       0.02582185
Cu       5.03911752      -0.00744009      20.33149761        1      -0.02281337      -0.00793918      -0.03149936
Cu       7.58683907      -0.00740709      20.32410261        1       0.00760441      -0.00865389       0.00560013
Cu       1.21502537       2.20942290      20.32743160        1      -0.01047077      -0.00354492      -0.02868329
Cu       3.76609861       2.20366242      20.34105481        1      -0.00951999      -0.01403423      -0.02663993
Cu       6.31508769       2.20088427      20.32129988        1      -0.01973576      -0.00393434      -0.04242529
Cu       8.86051867       2.20671214      20.30828949        1       0.02029285      -0.02210891      -0.03917385
Cu       2.50388183       4.41517105      20.33305825        1      -0.04318999      -0.00402445      -0.01484463
Cu       5.04669742       4.41055353      20.29038027        1      -0.02837195       0.00699026       0.03029624
Cu       7.59124410       4.42598760      20.28433182        1      -0.02410687      -0.01958155      -0.03507990
Cu      10.14814656       4.42881135      20.30899983        1       0.02896615      -0.02640348      -0.02092887
Cu       3.76969281       6.62771722      20.32666630        1      -0.01220345      -0.01525321       0.00363044
Cu       6.31223707       6.64504378      20.29790349        1      -0.01238914      -0.03104877       0.01679157
Cu       8.87231176       6.63447061      20.31661037        1      -0.00330372       0.02358889      -0.04087085
Cu      11.43317595       6.62639304      20.33108684        1      -0.02728605      -0.00925364      -0.00267690
O        7.45191780       4.85468159      23.56968990        0       0.02511436       0.01045551      -0.05015109
C        8.34842352       4.08894613      23.57495826        0       0.47500846      -0.44267115       0.18586360
O        9.24207339       3.31172048      23.63907958        0      -0.43666929       0.39724052      -0.08348829
