99
Lattice="10.210621920333747 0.0 0.0 5.105310960166873 8.842657971447272 0.0 0.0 0.0 30.421172358872745" Properties=species:S:1:pos:R:3:tags:I:1:forces:R:3 energy=-440.02947998046875 free_energy=-440.02947998046875 stress="0.016825970262289047 4.172325134277344e-06 3.9348378777503967e-07 4.172325134277344e-06 0.01671454682946205 -4.2753759771585464e-05 3.9348378777503967e-07 -4.2753759771585464e-05 0.010125158354640007" pbc="T T F"
Cu       0.73748783       0.55414970      10.09514669        6       0.00107767       0.00311861       0.00662900
Cu       3.29023188       0.55577859      10.09798807        6      -0.00263885      -0.00161082       0.00234625
Cu       5.84211279       0.55519738      10.10013002        6      -0.00133096       0.00228454      -0.00221306
Cu       8.39485694       0.55604354      10.09732532        6       0.00008478      -0.00288667      -0.00004487
Cu       2.01387753       2.76541066      10.10164334        6      -0.00265488       0.00036270      -0.00264197
Cu       4.56536090       2.76729802      10.10074359        6       0.00172019      -0.00608077      -0.00309625
Cu       7.11985337       2.76558658      10.09771167        6      -0.00406134       0.00017634       0.00175215
Cu       9.67321308       2.76532099      10.09875409        6      -0.00309576      -0.00097273       0.00197945
Cu       3.28953485       4.97657284      10.09980557        6      -0.00041435      -0.00075622      -0.00574745
Cu       5.84300224       4.97512733      10.09464845        6      -0.00160486       0.00370956       0.00013663
Cu       8.39730764       4.97495370      10.09682272        6      -0.00408429       0.00111438      -0.00405744
Cu      10.94904184       4.97500534      10.09983006        6      -0.00216521       0.00380704      -0.00061879
Cu       4.56603288       7.18706410      10.09437931        6       0.00002206       0.00034727       0.00305596
Cu       7.11939540       7.18502802      10.09160773        6      -0.00102606       0.00666498       0.00618077
Cu       9.67157063       7.18627049      10.09647624        6       0.00162841       0.00202905       0.00021942
Cu      12.22420858       7.18650900      10.09774886        6      -0.00231871       0.00328485      -0.00010641
Cu      -0.53991361       1.28750728      12.15882573        5       0.00170480       0.00443041      -0.00732811
Cu       2.01108035       1.28974507      12.16061429        5      -0.00008962       0.00034858      -0.00701926
Cu       4.56367273       1.29073254      12.16092059        5      -0.00313679      -0.00114415      -0.00638651
Cu       7.11777125       1.29011466      12.15904871        5      -0.00361837       0.00013702      -0.00448391
Cu       0.73457773       3.50021492      12.16318430        5       0.00031385       0.00229620      -0.00526631
Cu       3.28645403       3.50077625      12.16213578        5      -0.00009137      -0.00014403      -0.00238847
Cu       5.84072135       3.50114059      12.15801427        5      -0.00139219      -0.00117761      -0.00199689
Cu       8.39476687       3.50062919      12.15915780        5      -0.00217528      -0.00144037      -0.00243716
Cu       2.01275003       5.71160250      12.15978036        5      -0.00520389      -0.00130133       0.00079190
Cu       4.56547794       5.71019308      12.15512837        5       0.00048255       0.00181612       0.00447185
Cu       7.11776072       5.71064720      12.15313543        5      -0.00308510       0.00075741       0.00279501
Cu       9.66930337       5.71056154      12.15804305        5       0.00318188       0.00235769       0.00221808
Cu       3.28935670       7.92129280      12.15666521        5       0.00015655      -0.00302541      -0.00252369
Cu       5.84288794       7.92079704      12.15446745        5      -0.00299910      -0.00140393      -0.00309617
Cu       8.39274524       7.92120522      12.15496521        5      -0.00153909       0.00278031       0.00214627
Cu      10.94555878       7.92097834      12.15822004        5      -0.00229888       0.00039419      -0.00294169
Cu      -0.54818400      -0.20331035      14.19439569        4      -0.00070442      -0.00145926       0.00214304
Cu       1.99742065      -0.19708659      14.19554799        4       0.00414239      -0.00245160       0.00184278
Cu       4.55019601      -0.19923475      14.19384001        4       0.00072812      -0.00076639       0.00125667
Cu       7.10839619      -0.20149616      14.19094826        4      -0.00041010      -0.00053829       0.00402717
Cu       0.72233456       2.01250159      14.20100984        4       0.00188848      -0.00019031       0.00134516
Cu       3.27284746       2.01315163      14.20098589        4       0.00354600       0.00097735      -0.00116332
Cu       5.82840334       2.01407244      14.19592566        4       0.00042941      -0.00300454       0.00102403
Cu       8.38649101       2.00985675      14.19425142        4      -0.00252479      -0.00044621       0.00363281
Cu       1.99786896       4.22492220      14.20211931        4       0.00075667      -0.00230239       0.00216290
Cu       4.55072528       4.22223855      14.19740892        4       0.00349990       0.00170283       0.00299336
Cu       7.10483170       4.22410867      14.19287781        4      -0.00026529      -0.00222007       0.00267476
Cu       9.65696895       4.22461005      14.20146935        4       0.00081238      -0.00150913      -0.00105129
Cu       3.28162390       6.42917120      14.19476167        4      -0.00187332       0.00236630       0.00523957
Cu       5.83112707       6.43262454      14.19222135        4      -0.00031060      -0.00250492       0.00292147
Cu       8.37890595       6.43377341      14.19196108        4       0.00121961       0.00086902       0.00323200
Cu      10.93451931       6.43223263      14.19816360        4      -0.00006998      -0.00090819       0.00058115
Cu       0.71754237       0.53653486      16.22829732        3       0.00513871       0.00401830      -0.00461955
Cu       3.26575108       0.53910049      16.22372838        3       0.00107562      -0.00101413       0.00254906
Cu       5.82136764       0.53370886      16.21558605        3      -0.00138507      -0.00081454       0.00126127
Cu       8.38016362       0.53277192      16.21918478        3      -0.00238664       0.00089410       0.00037297
Cu       1.99066378       2.75069312      16.23182663        3       0.00121097       0.00105419       0.00069738
Cu       4.54592843       2.75186782      16.22553871        3      -0.00195161      -0.00343070       0.00241526
Cu       7.09823347       2.75171770      16.21806274        3      -0.00041487      -0.00272531       0.00112854
Cu       9.64815004       2.75076703      16.22749073        3       0.00282287      -0.00193115       0.00051279
Cu       3.26968866       4.96170961      16.23183937        3      -0.00128311      -0.00286718       0.00123064
Cu       5.82018624       4.96290632      16.22700623        3       0.00111684      -0.00091847      -0.00415491
Cu       8.37086519       4.96491503      16.22256440        3       0.00024740      -0.00118067       0.00092682
Cu      10.92427369       4.96155324      16.23225856        3       0.00184649      -0.00165055       0.00079759
Cu       4.54964571       7.16812937      16.22729930        3      -0.00073822      -0.00204843      -0.00007079
Cu       7.09589458       7.17210330      16.22634981        3       0.00175850       0.00151002      -0.00173113
Cu       9.64396147       7.16977529      16.22050384        3       0.00218422       0.00024588       0.00485244
Cu      12.20374519       7.16821458      16.22189647        3       0.00048411      -0.00213138       0.00372862
Cu      -0.55760298       1.28092579      18.25406322        2      -0.00235508       0.00173521      -0.00350435
Cu       1.98956597       1.28983808      18.26729303        2      -0.00454582      -0.00580415      -0.00109245
Cu       4.53669405       1.28289569      18.25509329        2      -0.00295240      -0.00009831       0.00439691
Cu       7.08667724       1.28451395      18.23451958        2      -0.00144503      -0.00434511       0.00581673
Cu       0.70963038       3.49802090      18.26941937        2       0.00174796      -0.00188081      -0.00116390
Cu       3.26455312       3.49853317      18.26965866        2       0.00197859      -0.00126284      -0.00318473
Cu       5.81510068       3.50105471      18.25746720        2      -0.00035156      -0.00159390       0.00347818
Cu       8.36618067       3.50916073      18.24962994        2       0.00539852      -0.00708235      -0.00402838
Cu       1.98636821       5.71011604      18.27013807        2       0.00257386      -0.00701598      -0.00362478
Cu       4.54146568       5.70851794      18.26992671        2       0.00064864      -0.00166523       0.00032205
Cu       7.09148134       5.71385331      18.26202068        2      -0.00139554       0.00433997       0.00517104
Cu       9.64325255       5.70960721      18.26532239        2      -0.00398722       0.00393605      -0.00547331
Cu       3.26842019       7.91387732      18.25640413        2       0.00082945       0.00174632       0.00095071
Cu       5.81851481       7.91928249      18.26969703        2      -0.00095704      -0.00011638      -0.00385256
Cu       8.36624124       7.92286142      18.26478000        2      -0.00143709      -0.00905445      -0.00664480
Cu      10.91194878       7.91296992      18.25234069        2       0.00343894       0.00132053       0.00064446
Cu      -0.57103046      -0.18776290      20.32397083        1       0.00843947       0.00397716       0.00207662
Cu       1.98755135      -0.18640896      20.32701382        1      -0.00620975      -0.00023261       0.00262259
Cu       4.53821919      -0.19232199      20.32000159        1      -0.00582062      -0.00007386      -0.00406849
Cu       7.08287421      -0.19569197      20.28027770        1       0.00539472       0.00585722      -0.00259853
Cu       0.70825182       2.02071943      20.32428184        1       0.00153137      -0.00044189      -0.00045637
Cu       3.26472561       2.01961937      20.32367098        1      -0.00374656       0.00269203       0.00190946
Cu       5.80686680       2.02152852      20.28970997        1       0.00703185       0.00688592       0.00319437
Cu       8.36423648       2.02985738      20.25271117        1      -0.00122267      -0.00154892       0.01496151
Cu       1.98770078       4.23026854      20.32802482        1       0.00116763       0.00467748      -0.00430632
Cu       4.54126448       4.23348998      20.32648961        1       0.00426168       0.00206639      -0.00567399
Cu       7.09245718       4.23901408      20.30626687        1      -0.00101134       0.00127279       0.00527335
Cu       9.64451542       4.23336357      20.32045710        1       0.00428687       0.00425694      -0.01062704
Cu       3.26441244       6.44307110      20.32533997        1       0.00061759      -0.00059408       0.00541404
Cu       5.81634909       6.44641715      20.32939796        1       0.00315464       0.00105930      -0.00636432
Cu       8.36864382       6.44563703      20.32008643        1       0.00567604      -0.00694801       0.00671653
Cu      10.91790939       6.44018611      20.32294809        1       0.00405765      -0.00394835       0.00106025
O       22.93797128      10.37283770      23.70888311        0       0.03630028      -0.03086814       0.00724292
C       23.90802132       9.74069244      23.48544031        0      -0.05540650       0.04932857      -0.01725634
O       24.87838074       9.10912063      23.26933452        0       0.01436853      -0.00547946      -0.00042206
