99
Lattice="10.210621920333747 0.0 0.0 5.105310960166873 8.842657971447272 0.0 0.0 0.0 30.421172358872745" Properties=species:S:1:pos:R:3:tags:I:1:forces:R:3 energy=-440.2794494628906 free_energy=-440.2794494628906 stress="0.0193743035197258 2.814456820487976e-06 3.2922253012657166e-07 2.814456820487976e-06 0.01928778365254402 -5.016010254621506e-05 3.2922253012657166e-07 -5.016010254621506e-05 0.011566278524696827" pbc="T T F"
Cu       0.79167150       0.60700756      10.09067373        6       0.01625284      -0.00583806       0.01009104
Cu       3.34276812       0.59992235      10.07729804        6      -0.00771764       0.01553277       0.03996994
Cu       5.89726708       0.61320140      10.07604210        6       0.02836617      -0.01943144       0.01398390
Cu       8.45528906       0.60654546      10.09346725        6      -0.01057330      -0.00886451      -0.00085501
Cu       2.06469330       2.82449957      10.09528377        6       0.01351844      -0.03109926      -0.00521887
Cu       4.62258503       2.80755662      10.08800825        6       0.00479587       0.04225998      -0.00102278
Cu       7.17885750       2.81779859      10.09480070        6      -0.01996576      -0.00206713      -0.01643965
Cu       9.72302038       2.81333904      10.09212283        6       0.03018157       0.03325035       0.00780889
Cu       3.34779857       5.02959985      10.09913898        6       0.01577328       0.00628048      -0.03339472
Cu       5.89858384       5.03088305      10.11805250        6      -0.00145435      -0.03626600      -0.06415468
Cu       8.44490616       5.02745986      10.08386305        6       0.03384700      -0.00038953       0.01897946
Cu      11.00604223       5.03385185      10.09472603        6      -0.01765971      -0.02320703      -0.01250930
Cu       4.62534551       7.23621249      10.11474272        6      -0.01234247       0.00549340      -0.04765703
Cu       7.17385212       7.23791507      10.09319919        6       0.01171119       0.00516766       0.00319779
Cu       9.72745725       7.24033770      10.08290779        6       0.00058499      -0.00693686       0.01508056
Cu      12.28206488       7.24785997      10.07826413        6       0.01654902      -0.02468724       0.03578708
Cu      -0.46887901       1.34438535      12.15287941        5       0.00247112      -0.01622426       0.02941305
Cu       2.07855952       1.33892558      12.14876170        5       0.02509060      -0.00416631      -0.01015795
Cu       4.63689277       1.33307398      12.13481260        5      -0.00053617       0.01242706       0.03608461
Cu       7.19337601       1.34803871      12.15236379        5      -0.01153646      -0.02732982      -0.00938954
Cu       0.80117091       3.54840043      12.16098306        5       0.02038472       0.02214520      -0.04355645
Cu       3.36578919       3.55442997      12.14149239        5      -0.01411587      -0.01909938       0.04016275
Cu       5.91657326       3.54794298      12.15752513        5      -0.01781224      -0.00280290      -0.00354294
Cu       8.45862128       3.54969999      12.15369955        5       0.02807438       0.01818068       0.00748697
Cu       2.08168635       5.75926882      12.14434193        5       0.00966307       0.02984455       0.02899037
Cu       4.63730387       5.76102699      12.16481806        5      -0.00681724       0.00554315      -0.01574291
Cu       7.19070603       5.76177190      12.15670067        5      -0.00967984      -0.00368395       0.01356841
Cu       9.73239645       5.75624545      12.14230924        5       0.03975837       0.02450874       0.01026018
Cu       3.36009173       7.97945816      12.15977251        5       0.00560300      -0.02027833      -0.03443237
Cu       5.91017024       7.97062615      12.15636267        5       0.01044168       0.01921028       0.01043391
Cu       8.46608243       7.97024406      12.15337044        5      -0.00262641       0.01381850      -0.04806789
Cu      11.02344579       7.97946228      12.13291778        5      -0.00095410      -0.03234317       0.03398830
Cu      -0.45455593      -0.13744455      14.20693995        4       0.01924352      -0.00679827      -0.04409543
Cu       2.09374553      -0.15410924      14.19164554        4       0.01051323       0.03209245       0.00725572
Cu       4.65267715      -0.15855107      14.17856584        4       0.00504204       0.04357838      -0.00355565
Cu       7.20955606      -0.14643913      14.18678381        4      -0.01902916       0.00605282       0.00413360
Cu       0.82676057       2.06913530      14.19594300        4      -0.01053011      -0.01164378       0.00739593
Cu       3.37767978       2.06628313      14.17323565        4      -0.01150937      -0.01730182       0.02947212
Cu       5.91967486       2.05745859      14.18724219        4       0.01541076       0.01603037      -0.00286889
Cu       8.47803854       2.07090285      14.20130396        4       0.00873256      -0.00428485      -0.00469196
Cu       2.09928184       4.27358870      14.19253028        4       0.00916166       0.01626197      -0.01382690
Cu       4.65002700       4.27856737      14.19367504        4       0.00475831      -0.01514175      -0.00905188
Cu       7.19832952       4.27034309      14.20303278        4       0.01502354       0.01796234      -0.01903914
Cu       9.75293321       4.28222514      14.19569059        4       0.00337536      -0.01867161      -0.00717719
Cu       3.37841722       6.49158893      14.19228377        4      -0.01391233      -0.01408185      -0.00489768
Cu       5.91965885       6.48988223      14.19993950        4       0.04033773      -0.02060298      -0.00125623
Cu       8.47624676       6.48109169      14.18653128        4      -0.00834515       0.00238459       0.02320612
Cu      11.03129216       6.48277421      14.17982786        4       0.00912280       0.00265454      -0.00726029
Cu       0.84512074       0.59012619      16.23335810        3      -0.01223924      -0.01828387      -0.01905475
Cu       3.39555342       0.58621190      16.20405358        3       0.00065844      -0.01444683       0.02418994
Cu       5.94516676       0.58781170      16.20750297        3       0.03088182      -0.02973767       0.03834591
Cu       8.50203750       0.58949011      16.22714285        3      -0.00542848       0.00645939       0.01896386
Cu       2.12149339       2.79544297      16.22382159        3       0.00365254       0.00861599      -0.03966826
Cu       4.65940325       2.79583632      16.21674392        3       0.05923222       0.00984049      -0.02903178
Cu       7.21336195       2.79292739      16.23139567        3       0.06720554       0.01835433      -0.02470312
Cu       9.78011334       2.80687854      16.23214628        3      -0.03250044      -0.04615198      -0.01178394
Cu       3.40202171       5.00737389      16.21750955        3      -0.01758883       0.02502360       0.02509712
Cu       5.94694096       4.99733697      16.22970188        3       0.02165304       0.05231977       0.01027237
Cu       8.50756934       5.01145544      16.22788129        3      -0.06031630      -0.02190700       0.02352761
Cu      11.05537849       5.01087512      16.22389439        3       0.02445881      -0.00439959      -0.01075242
Cu       4.67099857       7.21372562      16.23363897        3       0.00886224       0.01437159      -0.03371643
Cu       7.21750099       7.21087986      16.22859353        3       0.01728192      -0.00111393      -0.01451308
Cu       9.77461661       7.21777705      16.20862608        3       0.01369005       0.00212635       0.03732315
Cu      12.32719631       7.21597595      16.20676494        3       0.01311717       0.00870166       0.04580965
Cu      -0.39807517       1.32542219      18.27798964        2      -0.04574116      -0.01232432      -0.02128091
Cu       2.15430007       1.31879494      18.25312613        2      -0.00456006       0.01464765       0.04905394
Cu       4.71316494       1.33293527      18.23785594        2      -0.04409585      -0.04548329       0.07100131
Cu       7.25405520       1.33258064      18.26670257        2       0.02272747      -0.02915917      -0.00866602
Cu       0.87355427       3.52758861      18.25883102        2       0.00531218       0.04845672       0.06850943
Cu       3.42649139       3.54304065      18.25018932        2       0.01581438      -0.00287608       0.02053781
Cu       5.98127931       3.53643631      18.26286678        2      -0.01891293       0.01594365       0.07903481
Cu       8.53530416       3.53966014      18.27906770        2      -0.02573418      -0.01272827      -0.00700290
Cu       2.15772288       5.74653842      18.25613714        2       0.00592210      -0.00754175      -0.04846247
Cu       4.71199034       5.75308202      18.27459651        2      -0.02784847      -0.03723168      -0.00773981
Cu       7.25613817       5.74199106      18.28288364        2      -0.02777722      -0.01504575      -0.07251152
Cu       9.81018521       5.74633882      18.25736203        2       0.00628543      -0.01795705      -0.01401295
Cu       3.42298992       7.95551883      18.25372455        2       0.00200445       0.02638918       0.05066618
Cu       5.97455387       7.94547372      18.26946902        2      -0.00633183       0.02801755       0.00120935
Cu       8.52648144       7.95355060      18.24651933        2       0.03263604       0.01474625       0.00215694
Cu      11.09305203       7.95159968      18.24649270        2      -0.03344865       0.03581706      -0.05628317
Cu      -0.36572008      -0.15662452      20.32594433        1      -0.04432261      -0.00038964       0.00349346
Cu       2.17929628      -0.16163516      20.29812205        1       0.00348488       0.01698026      -0.01405208
Cu       4.74939682      -0.15895488      20.28198258        1      -0.07149841       0.01283302      -0.08318970
Cu       7.28534355      -0.14965727      20.31340505        1       0.05037732      -0.00969590      -0.02978265
Cu       0.90459048       2.05773807      20.32189109        1       0.02031683       0.00356031      -0.00597580
Cu       3.47134721       2.06949897      20.28545574        1      -0.06229668      -0.05109352       0.00380978
Cu       6.01616357       2.04902885      20.32482759        1      -0.01552394       0.04716365      -0.04361847
Cu       8.56057218       2.05793495      20.33983591        1       0.00991054      -0.01332105      -0.01832176
Cu       2.19571368       4.26772433      20.29994753        1      -0.05607153      -0.00584268       0.05062430
Cu       4.73637221       4.25917030      20.32477289        1       0.01274116       0.04359116      -0.00769064
Cu       7.28998538       4.26357489      20.34994570        1      -0.02848209      -0.01849993      -0.03222707
Cu       9.84509328       4.26631848      20.33677727        1       0.01339815      -0.02747031      -0.04069648
Cu       3.46262976       6.48694733      20.31754667        1       0.00980113      -0.02556815       0.02640160
Cu       6.01950669       6.46917219      20.34647364        1      -0.04176242       0.00549351      -0.01968502
Cu       8.57623954       6.46112931      20.29825684        1      -0.03713635       0.04674386       0.04575397
Cu      11.13545271       6.47058316      20.28600117        1      -0.06058535       0.00535332       0.03590398
O       19.18518406       9.05145008      23.47185567        0      -0.16366065       0.11987903       0.00651044
C       20.07143777       8.28535028      23.58000212        0       0.44454175      -0.29480687       0.02955125
O       20.96878149       7.52661374      23.70125449        0      -0.22877324       0.13421035      -0.01621027
