99
Lattice="10.210621920333747 0.0 0.0 5.105310960166873 8.842657971447272 0.0 0.0 0.0 30.421172358872745" Properties=species:S:1:pos:R:3:tags:I:1:forces:R:3 energy=-440.2882995605469 free_energy=-440.2882995605469 stress="0.019259091466665268 2.4619512259960175e-06 -1.8486753106117249e-07 2.4619512259960175e-06 0.019203761592507362 -5.013076588511467e-05 -1.8486753106117249e-07 -5.013076588511467e-05 0.011439260095357895" pbc="T T F"
Cu       1.27365022       0.76633285      10.09635008        6       0.00170929      -0.00325492      -0.00353161
Cu       3.82673255       0.76690047      10.09599533        6       0.00194824      -0.00429585      -0.00134104
Cu       6.37940362       0.76649928      10.09613810        6       0.00320750      -0.00098067      -0.00092168
Cu       8.93239691       0.76743058      10.09537504        6      -0.00104967      -0.00423142      -0.00143519
Cu       2.54939350       2.97747820      10.09740531        6       0.00439059      -0.00779765      -0.00226125
Cu       5.10340042       2.97792657      10.09760660        6       0.00090224      -0.00338952      -0.00356804
Cu       7.65626011       2.97898957      10.09715922        6       0.00016667      -0.00527424      -0.00327542
Cu      10.20896316       2.97871845      10.09707474        6      -0.00021649      -0.00515406      -0.00228310
Cu       3.82620558       5.18778577      10.09704595        6       0.00264864      -0.00499047       0.00011580
Cu       6.37971157       5.19029573      10.09700758        6       0.00109327      -0.00702209      -0.00237172
Cu       8.93315687       5.19008689      10.09805562        6       0.00112658      -0.00786525      -0.00465952
Cu      11.48515030       5.18931049      10.09707124        6      -0.00072192      -0.00776433       0.00279201
Cu       5.10222082       7.39863110      10.09519326        6       0.00218275      -0.00709654       0.00228852
Cu       7.65567842       7.40023682      10.09571361        6       0.00202400      -0.00708328      -0.00296483
Cu      10.20877625       7.39918269      10.09517189        6       0.00236348      -0.00577058      -0.00000348
Cu      12.76133712       7.39890586      10.09596357        6       0.00223093      -0.00491083      -0.00065739
Cu       0.00044511       1.48987122      12.15440958        5      -0.00329988       0.00205048       0.00401103
Cu       2.55204971       1.48836223      12.15508171        5      -0.00181475       0.00414366       0.00458003
Cu       5.10522627       1.48914883      12.15581648        5      -0.00367965       0.00350042       0.00415005
Cu       7.65831865       1.49002537      12.15511021        5      -0.00376532       0.00217423       0.00447230
Cu       1.27639089       3.70065748      12.15642094        5      -0.00297076       0.00307329       0.00247843
Cu       3.82787154       3.69932756      12.15645042        5      -0.00185809       0.00626192       0.00085805
Cu       6.38185325       3.70120929      12.15586759        5      -0.00419909       0.00221157       0.00192856
Cu       8.93534143       3.70184919      12.15558624        5      -0.00359066       0.00055007       0.00244675
Cu       2.55268652       5.91152475      12.15680074        5      -0.00290107       0.00263625       0.00134984
Cu       5.10479028       5.91132620      12.15527579        5      -0.00302561       0.00343342       0.00517355
Cu       7.65883999       5.91238437      12.15528582        5      -0.00513232       0.00241452       0.00317447
Cu      10.21220283       5.91220327      12.15746737        5      -0.00545906       0.00105945       0.00032655
Cu       3.82921781       8.12217559      12.15514525        5      -0.00460383       0.00145859       0.00447146
Cu       6.38151511       8.12165078      12.15382858        5      -0.00224904       0.00171293       0.00672898
Cu       8.93512849       8.12096139      12.15604944        5      -0.00431625       0.00460056       0.00270466
Cu      11.48786688       8.12179785      12.15664642        5      -0.00562135       0.00241549       0.00278678
Cu      -0.01035398      -0.01025620      14.19467400        4       0.00166465       0.00410840      -0.00209102
Cu       2.54213431      -0.00920908      14.19590020        4       0.00132572       0.00194863      -0.00296217
Cu       5.09426383      -0.00890921      14.19786496        4       0.00059000       0.00067353      -0.00025713
Cu       7.64700490      -0.00970790      14.19776537        4       0.00111264       0.00146247      -0.00113508
Cu       1.26604845       2.20173749      14.19608659        4       0.00070847       0.00043906      -0.00435722
Cu       3.81676649       2.20239752      14.19557965        4       0.00186607      -0.00071005      -0.00192676
Cu       6.37122755       2.20144562      14.19549334        4       0.00068193      -0.00039117      -0.00356737
Cu       8.92505984       2.20042197      14.19395553        4       0.00094890       0.00069850      -0.00141097
Cu       2.54128500       4.41499606      14.19809315        4      -0.00010641      -0.00125658      -0.00009696
Cu       5.09434637       4.41474205      14.19567227        4       0.00025312      -0.00098741      -0.00269980
Cu       7.64872484       4.41414077      14.19406974        4       0.00038653      -0.00075745      -0.00031541
Cu      10.20035065       4.41301323      14.19769496        4       0.00104605       0.00062352      -0.00104046
Cu       3.81754260       6.62381467      14.19792747        4       0.00067821       0.00204183      -0.00063554
Cu       6.37160441       6.62466386      14.19465511        4       0.00028961       0.00062807      -0.00004422
Cu       8.92356621       6.62335587      14.19769405        4       0.00323083       0.00365925      -0.00078739
Cu      11.47558336       6.62364393      14.19972029        4       0.00181237       0.00289147       0.00036855
Cu       1.26230945       0.71760596      16.22323144        3       0.00163663       0.00253019       0.00184406
Cu       3.81153447       0.71639733      16.22574778        3       0.00360628       0.00423000       0.00067763
Cu       6.36692539       0.71496771      16.22638579        3       0.00154328       0.00229665      -0.00068480
Cu       8.92263249       0.71600775      16.22393336        3       0.00108097       0.00163836       0.00039527
Cu       2.53632946       2.92749224      16.22258686        3       0.00175494       0.00299980       0.00440103
Cu       5.09129150       2.92755301      16.21739061        3      -0.00122813      -0.00104514       0.00345526
Cu       7.64763428       2.92748252      16.21601944        3      -0.00051342      -0.00091452       0.00358066
Cu      10.19807690       2.92724407      16.22190396        3       0.00296662       0.00250220       0.00221884
Cu       3.81470301       5.14090598      16.22435239        3      -0.00050790       0.00068080       0.00300815
Cu       6.37032098       5.14234055      16.21802213        3      -0.00096574      -0.00021688       0.00321512
Cu       8.92183876       5.14173850      16.22511094        3       0.00126897       0.00158157       0.00077236
Cu      11.47121440       5.14225481      16.22914231        3       0.00258629      -0.00028955       0.00310543
Cu       5.09303142       7.35389934      16.22361122        3      -0.00096612      -0.00080098       0.00329630
Cu       7.64459986       7.35383409      16.22544939        3       0.00007235       0.00038547       0.00225180
Cu      10.19535247       7.35199298      16.23069901        3       0.00105995       0.00066965       0.00305371
Cu      12.74856995       7.35157275      16.23108283        3       0.00158297       0.00050505       0.00197127
Cu      -0.00326507       1.45928721      18.26086638        2      -0.00222214       0.00359325       0.00125729
Cu       2.53909997       1.45893723      18.26437340        2       0.00438776       0.00584861       0.00099528
Cu       5.09030735       1.45453557      18.25443909        2       0.00412501       0.00930614       0.00533620
Cu       7.65273577       1.45572638      18.25211255        2      -0.00159034       0.00770516       0.00598183
Cu       1.26756452       3.66909171      18.26370631        2      -0.00027899       0.00468896       0.00335928
Cu       3.81508941       3.66905809      18.25169238        2       0.00282702       0.00497642       0.00897839
Cu       6.37223101       3.66976216      18.23808955        2       0.00230401       0.00409752       0.00720528
Cu       8.93197728       3.67040786      18.24964767        2      -0.00360982       0.00212154       0.00748239
Cu       2.54381053       5.88384784      18.26726491        2       0.00160287       0.00406268       0.00084031
Cu       5.09700193       5.88955412      18.25365353        2       0.00031741      -0.00165819       0.00337300
Cu       7.65004444       5.89017558      18.25497265        2       0.00197507      -0.00070606       0.00072544
Cu      10.20230994       5.88387430      18.26954491        2       0.00097595       0.00351153       0.00298281
Cu       3.82330938       8.09767708      18.26828748        2      -0.00078862       0.00002650      -0.00609547
Cu       6.37387333       8.09942058      18.26588026        2       0.00029221      -0.00039713      -0.00156538
Cu       8.92369758       8.09452578      18.27229335        2       0.00324708       0.00486895       0.00025219
Cu      11.47771249       8.09283912      18.27317969        2       0.00160980       0.00682637      -0.00340452
Cu       0.00866417      -0.01154840      20.33019626        1      -0.00271638      -0.00172060      -0.00756374
Cu       2.56085582      -0.01199767      20.33689904        1      -0.00601312      -0.00291886      -0.01415649
Cu       5.11085608      -0.00992075      20.33073901        1      -0.00281916      -0.01286701      -0.00829762
Cu       7.66408527      -0.01059961      20.32613883        1      -0.00342904      -0.00813158      -0.00728451
Cu       1.28283791       2.19572295      20.32742567        1       0.00103897       0.00234722      -0.01059056
Cu       3.82996473       2.19636870      20.30487629        1      -0.00324685      -0.00728630       0.00000777
Cu       6.38424914       2.19809993      20.28011380        1      -0.00368703      -0.01259348       0.00051294
Cu       8.94533225       2.19583836      20.29675793        1      -0.00261010      -0.00157125      -0.00279412
Cu       2.55448063       4.40897487      20.31383715        1      -0.00254258       0.00006287      -0.00911650
Cu       5.10832070       4.41568197      20.27886120        1      -0.00080785      -0.00357864      -0.01257802
Cu       7.66865070       4.41507730      20.27742309        1      -0.00020378      -0.00070017       0.00557398
Cu      10.21953083       4.40734309      20.31898553        1      -0.00009762       0.00336247      -0.00653235
Cu       3.83511719       6.62702579      20.31544768        1      -0.00324801      -0.00405914      -0.00110446
Cu       6.39173966       6.62600201      20.30978850        1      -0.00347559      -0.00051836      -0.00252363
Cu       8.94282518       6.61921762      20.32732291        1      -0.00193941       0.00244567      -0.00114935
Cu      11.49288844       6.62220098      20.33146455        1       0.00072363      -0.00406339      -0.00564999
O        5.25028486       4.18646359      23.51660044        0       0.01437313       0.00169802      -0.00099019
C        6.32111337       3.69229100      23.50779606        0       0.01465881      -0.00287933       0.00467174
O        7.38982754       3.19430411      23.52602605        0      -0.00611910       0.00545021       0.00069233
