99
Lattice="10.210621920333747 0.0 0.0 5.105310960166873 8.842657971447272 0.0 0.0 0.0 30.421172358872745" Properties=species:S:1:pos:R:3:tags:I:1:forces:R:3 energy=-440.1729736328125 free_energy=-440.1729736328125 stress="0.020875247195363045 3.346707671880722e-06 -1.1594966053962708e-07 3.346707671880722e-06 0.02082117833197117 -5.07822260260582e-05 -1.1594966053962708e-07 -5.07822260260582e-05 0.013062565587460995" pbc="T T F"
Cu       1.15896359       0.71948994      10.09786798        6      -0.08247428      -0.03593780      -0.02450909
Cu       3.70374667       0.69639398      10.11018162        6      -0.01026926       0.03833961      -0.03811975
Cu       6.25437647       0.71739084      10.10563251        6      -0.02188354      -0.00930920      -0.03156959
Cu       8.80376244       0.72518025      10.10891435        6       0.00395592      -0.04475883      -0.04945509
Cu       2.43137822       2.92301864      10.08723411        6      -0.01288955      -0.03142649       0.01103297
Cu       4.98102244       2.91825362      10.08644761        6      -0.03485673      -0.00119453       0.00525960
Cu       7.54198120       2.93035700      10.09675003        6      -0.05099823      -0.00752308      -0.02037943
Cu      10.09271795       2.92903884      10.09396294        6      -0.03793073      -0.03626432      -0.01040285
Cu       3.69795964       5.13643832      10.06645456        6       0.00583642      -0.00323305       0.04783187
Cu       6.25462779       5.13456597      10.09348193        6      -0.00426484      -0.01758470      -0.04138685
Cu       8.82452970       5.14117332      10.07292757        6      -0.09907242      -0.03792631       0.05446126
Cu      11.36492214       5.12747347      10.08548557        6      -0.01525481       0.01761388       0.00792709
Cu       4.98125853       7.34648233      10.09770493        6      -0.05604407       0.00573506      -0.04076665
Cu       7.53205458       7.34657279      10.10283147        6      -0.01735578      -0.04799586      -0.05389616
Cu      10.09145957       7.34045011      10.10620880        6      -0.03845507      -0.01010991      -0.02690584
Cu      12.63256551       7.35490932      10.06571458        6       0.00278564      -0.03780523       0.07453848
Cu      -0.16161589       1.42330401      12.15554482        5      -0.00081756       0.00822706       0.02146338
Cu       2.38777512       1.41387112      12.15003449        5       0.00750389       0.05692115       0.07944845
Cu       4.93777731       1.43456365      12.15706180        5      -0.01227248      -0.01688683       0.01500139
Cu       7.49217668       1.44004489      12.16091574        5       0.00073319      -0.03116418       0.01313051
Cu       1.12214865       3.63384734      12.15059359        5      -0.00349062      -0.00671145       0.02476557
Cu       3.66979838       3.65154537      12.14050916        5      -0.02854439      -0.03856283       0.01809965
Cu       6.22095552       3.64062092      12.14439604        5      -0.01546938      -0.01963547       0.01961948
Cu       8.78275322       3.63851181      12.15220858        5      -0.01588086      -0.01660895      -0.00298905
Cu       2.39570281       5.85352626      12.13729439        5      -0.01372448       0.01004399       0.02977356
Cu       4.95151974       5.85068210      12.14693954        5      -0.07173844      -0.01023490      -0.02067420
Cu       7.49902077       5.83865590      12.14904311        5       0.01701566       0.01210225      -0.02735104
Cu      10.04976686       5.83384666      12.15230675        5       0.01556541       0.03446378      -0.01154741
Cu       3.66745344       8.06131155      12.14888321        5      -0.03169987       0.00403682       0.01156331
Cu       6.22340136       8.04887992      12.15130326        5      -0.03023001       0.04811593       0.04346073
Cu       8.76558115       8.04608688      12.16035037        5       0.03659657       0.02335736       0.01365848
Cu      11.32859665       8.06524249      12.15156126        5      -0.01197604      -0.01352425       0.02490014
Cu      -0.20574883      -0.07925678      14.20240541        4      -0.00199093       0.00739739       0.00476183
Cu       2.34348265      -0.08791317      14.21071502        4      -0.01598174       0.07386646      -0.07034019
Cu       4.88885139      -0.07657487      14.19931049        4       0.02367177       0.06834082      -0.03499669
Cu       7.44670332      -0.07340654      14.20999297        4       0.00047591       0.01845283      -0.07029869
Cu       1.06381441       2.13531975      14.20390050        4       0.02138503      -0.01171712      -0.01839458
Cu       3.60729922       2.14830225      14.19306248        4       0.02502930      -0.01001668      -0.00527135
Cu       6.17039705       2.13470042      14.19864398        4      -0.01886364       0.03313599       0.01113157
Cu       8.73020003       2.12680109      14.20633894        4      -0.03767658       0.02237550      -0.02992884
Cu       2.33912934       4.35954167      14.19707377        4       0.04376090       0.00199566      -0.03947646
Cu       4.89684136       4.35133969      14.18630498        4      -0.02824298      -0.02839188       0.03310919
Cu       7.45884622       4.34799890      14.18184553        4      -0.04159119      -0.06365321       0.05670432
Cu      10.00765994       4.34338683      14.20560926        4      -0.01819625      -0.01221822      -0.02868473
Cu       3.62510362       6.57067125      14.19304319        4      -0.02581262      -0.05748706       0.01327232
Cu       6.18020596       6.54954163      14.18825487        4      -0.02352570       0.02933625       0.02819458
Cu       8.73888536       6.54977071      14.19848891        4      -0.06498350      -0.00481886      -0.02229575
Cu      11.27302162       6.56465445      14.19206084        4       0.05809795      -0.00418435      -0.01815914
Cu       1.02039610       0.65107710      16.24470733        3       0.00783514       0.01103446      -0.06153351
Cu       3.56970114       0.67041714      16.22949831        3       0.00211718      -0.01859592       0.02116565
Cu       6.11753741       0.65563771      16.23717970        3       0.00979387       0.00495175       0.01143810
Cu       8.67214600       0.64254968      16.24831513        3       0.01968749       0.01356770      -0.03679339
Cu       2.28996113       2.87838520      16.23519954        3      -0.00060723      -0.05902436      -0.06287391
Cu       4.84039768       2.86133136      16.24086877        3       0.05088186       0.02364725      -0.08396403
Cu       7.39241384       2.85844155      16.23751895        3      -0.00248201      -0.01094260      -0.04079697
Cu       9.93666682       2.85722693      16.23647639        3       0.04946686       0.02772111       0.00017319
Cu       3.57291867       5.06985846      16.24170503        3       0.04222569       0.06426226      -0.08890740
Cu       6.11814472       5.06549785      16.21677423        3       0.03260302       0.02116222       0.10847790
Cu       8.65455452       5.06164190      16.23254114        3       0.09646849       0.06149831       0.04037880
Cu      11.23007016       5.08133488      16.22687257        3      -0.05173140       0.00824427       0.02643067
Cu       4.85386355       7.27407976      16.24106699        3      -0.01572330       0.05247296      -0.01205396
Cu       7.39016054       7.27366880      16.22803301        3       0.06074313       0.03622474       0.03811112
Cu       9.94310596       7.29072614      16.22359022        3       0.04148140      -0.00077083       0.06483293
Cu      12.50703665       7.28312975      16.23071890        3       0.01518501       0.03738287       0.01074694
Cu      -0.28578885       1.37816662      18.27002224        2      -0.03836001       0.10750735       0.10021245
Cu       2.26279909       1.40594467      18.28081494        2       0.02058025      -0.00448653      -0.00009627
Cu       4.81516626       1.40885980      18.29294838        2       0.03216039      -0.03395955      -0.03452294
Cu       7.36627899       1.38683481      18.29015739        2       0.01734206       0.05277507      -0.00672732
Cu       0.98189633       3.59431801      18.25000864        2      -0.08181465       0.06149787       0.03780991
Cu       3.54071017       3.60683184      18.26538926        2       0.04973182       0.01043263       0.09147047
Cu       6.08882830       3.60953501      18.27859119        2       0.03746362       0.00699421       0.03597762
Cu       8.61882846       3.59534432      18.27454198        2       0.09703324       0.03169919       0.01466213
Cu       2.26428321       5.82961620      18.25695092        2      -0.00421405      -0.02799556       0.01941609
Cu       4.82036460       5.82993759      18.28774881        2       0.01538948      -0.04327429      -0.03871165
Cu       7.35313182       5.82776662      18.29031375        2       0.05258703      -0.06572235      -0.05693619
Cu       9.91324265       5.83012983      18.25795126        2      -0.02524086      -0.06211710      -0.02645027
Cu       3.53984747       8.02777198      18.29651114        2       0.01887996       0.04460373      -0.12293485
Cu       6.10265176       8.03013105      18.28525605        2      -0.04263295       0.00812868       0.00439391
Cu       8.63494231       8.04398650      18.25528911        2       0.06936599      -0.02828582       0.10977793
Cu      11.19715360       8.03357033      18.27188211        2      -0.02390511       0.03941318      -0.02641163
Cu      -0.29535635      -0.05469409      20.34434534        1       0.00302496      -0.00621392       0.00192879
Cu       2.25099646      -0.05819898      20.33688370        1       0.03662803      -0.02589459       0.02396918
Cu       4.79767612      -0.06525393      20.33569895        1       0.02796221      -0.02219693      -0.01162468
Cu       7.35730466      -0.06589012      20.34651193        1      -0.02070029       0.04499173      -0.01673867
Cu       0.96942836       2.14527595      20.32809995        1       0.01282423       0.00792048       0.01643762
Cu       3.53257469       2.13100350      20.34237646        1      -0.01661588       0.07733762      -0.02290452
Cu       6.08977993       2.14513516      20.35414205        1      -0.00420011      -0.01113493      -0.03274489
Cu       8.63578666       2.14773654      20.36078435        1       0.01131518      -0.03949885      -0.07164009
Cu       2.23071475       4.35010101      20.25720595        1       0.04456083       0.00340290       0.10584310
Cu       4.82546523       4.36777362      20.31688319        1      -0.07709821      -0.05785990      -0.08499683
Cu       7.36628405       4.35833831      20.35727903        1      -0.02755705      -0.03061053      -0.07372122
Cu       9.88808764       4.35347362      20.28646766        1       0.09356416      -0.01506640       0.08195267
Cu       3.53183285       6.59799145      20.32020623        1      -0.02366063      -0.09743638      -0.06781046
Cu       6.09356782       6.58527577      20.36439343        1      -0.00990626      -0.02296634      -0.09556658
Cu       8.62852686       6.56060990      20.32162344        1       0.02984782       0.05883747       0.02298342
Cu      11.17178222       6.57397528      20.29136217        1       0.02519938      -0.03523782       0.05945054
O       12.37454310       6.19178679      23.65632742        0      -0.02774606       0.11211842      -0.15018682
C       13.35042338       5.65114792      23.27870710        0       0.63275462      -0.57119358       0.34418467
O       14.35435171       5.03886031      23.07206330        0      -0.53046477       0.41368783       0.01011796
