99
Lattice="10.210621920333747 0.0 0.0 5.105310960166873 8.842657971447272 0.0 0.0 0.0 30.421172358872745" Properties=species:S:1:pos:R:3:tags:I:1:forces:R:3 energy=-440.3175964355469 free_energy=-440.3175964355469 stress="0.020194649696350098 3.0300579965114594e-06 2.537854015827179e-07 3.0300579965114594e-06 0.020109448581933975 -5.12637197971344e-05 2.537854015827179e-07 -5.12637197971344e-05 0.012223334982991219" pbc="T T F"
Cu       0.96348285       0.66540319      10.08958655        6      -0.02003832      -0.01555796       0.00117448
Cu       3.51812913       0.65585736      10.10660866        6      -0.02238952       0.01799689      -0.01817200
Cu       6.06543861       0.66190942      10.10167711        6      -0.00478367      -0.01086043      -0.01468434
Cu       8.61325759       0.65453111      10.09587097        6       0.00081724       0.00448914      -0.01115114
Cu       2.24020171       2.87270197      10.09674722        6      -0.02255489      -0.02047371      -0.01223039
Cu       4.79402142       2.86713867      10.09680939        6      -0.01708320       0.00684884       0.01228929
Cu       7.34297421       2.87268983      10.09483935        6      -0.01005567      -0.00443783       0.01199154
Cu       9.88769381       2.87106328      10.08075312        6       0.00955390       0.00205282       0.01437053
Cu       3.50887231       5.07896412      10.09475769        6       0.00964572       0.01050183      -0.01800762
Cu       6.06780622       5.08386252      10.11302156        6      -0.00765662      -0.01336461      -0.03877153
Cu       8.61656698       5.08934241      10.08269870        6      -0.00849166      -0.02538216       0.06015919
Cu      11.16551487       5.08450288      10.09231628        6      -0.01135228      -0.02377421       0.00386823
Cu       4.79231947       7.29284599      10.10899574        6      -0.02844937      -0.01008230      -0.04359530
Cu       7.34496329       7.30097864      10.10789075        6      -0.01558257      -0.01946550      -0.01563251
Cu       9.89407910       7.29385149      10.11339563        6      -0.00886524      -0.00625215      -0.02092542
Cu      12.44011309       7.29409044      10.08614645        6       0.01252285      -0.01746914       0.02878398
Cu      -0.32878379       1.38152562      12.14259317        5      -0.00002528       0.00998116       0.05326284
Cu       2.22459139       1.38062140      12.15435427        5       0.01079617       0.01726645       0.02649751
Cu       4.78284063       1.37977802      12.16100379        5       0.00204077       0.03779364       0.03011049
Cu       7.33225293       1.38420941      12.15844125        5       0.00811032       0.01031457       0.02942194
Cu       0.94398772       3.58494099      12.14631042        5       0.01985453       0.03334918       0.03352304
Cu       3.50476618       3.59768858      12.14919935        5      -0.00736133      -0.02183765       0.04048893
Cu       6.06362608       3.59491188      12.16279223        5      -0.00876108      -0.00763204       0.00505252
Cu       8.61546522       3.59207235      12.15521194        5      -0.01569359       0.02312222      -0.00152420
Cu       2.22230259       5.80124087      12.14544101        5      -0.00495620       0.00609169       0.04381689
Cu       4.77550290       5.80231454      12.15397371        5       0.00521728       0.00529828       0.02932116
Cu       7.34114511       5.81698663      12.15913981        5      -0.00255428      -0.03059343       0.00813522
Cu       9.88476168       5.80653540      12.16141336        5       0.00312883      -0.00710418      -0.01232408
Cu       3.49827123       8.01626837      12.15541247        5      -0.00542127      -0.00663789       0.01219316
Cu       6.04897343       8.01963386      12.15759735        5       0.02452970       0.00353217       0.02027958
Cu       8.61049943       8.02657980      12.17141212        5       0.00123074      -0.01970885      -0.00705714
Cu      11.16825283       8.02288376      12.16263805        5      -0.01451549      -0.02209400       0.00631437
Cu      -0.34302218      -0.10908106      14.19688830        4       0.01525919      -0.00859870      -0.00399978
Cu       2.21376841      -0.11346587      14.20775605        4       0.00394464       0.03360780      -0.05451910
Cu       4.77659475      -0.11193567      14.21415621        4      -0.01286535       0.02826626      -0.01770456
Cu       7.32335013      -0.11619677      14.21355143        4      -0.01262201       0.02531870      -0.05362308
Cu       0.93942663       2.09807797      14.19187713        4       0.00069509       0.00158544       0.00195079
Cu       3.49772627       2.10314166      14.19533342        4      -0.00890593      -0.00536856       0.00372752
Cu       6.05415062       2.09283387      14.21230530        4      -0.02920900       0.02959848      -0.02831377
Cu       8.60233624       2.09924247      14.20564231        4      -0.01429320       0.01900457      -0.03597268
Cu       2.20879763       4.30735793      14.19719134        4       0.02368017       0.00161298      -0.02125537
Cu       4.76926140       4.30776661      14.19426160        4      -0.01532477      -0.00969415       0.01046563
Cu       7.33247934       4.31315724      14.19743120        4      -0.00677798      -0.00546865       0.00235437
Cu       9.88119828       4.31596071      14.20526082        4      -0.00957648      -0.01646909      -0.03209102
Cu       3.48084115       6.52009381      14.19199998        4       0.03553879      -0.02908020       0.00961218
Cu       6.04464656       6.51731415      14.18932968        4      -0.00575569      -0.00071985       0.00377456
Cu       8.61518675       6.53128379      14.20606913        4      -0.06311666      -0.03440043      -0.01246210
Cu      11.15369062       6.52557886      14.20305638        4      -0.00386821      -0.01035202      -0.00013477
Cu       0.92579673       0.62498640      16.22550541        3      -0.00083576      -0.02120280      -0.01682225
Cu       3.48167611       0.62220774      16.23498103        3      -0.00336316      -0.00544216       0.00389760
Cu       6.03584549       0.61129899      16.25103665        3      -0.01178813      -0.00181056       0.00365034
Cu       8.57920348       0.61685253      16.22812976        3       0.00536690       0.00017839       0.03591174
Cu       2.20668282       2.82550807      16.23590905        3      -0.00552077       0.00364084      -0.03580428
Cu       4.74720551       2.81469955      16.24505017        3       0.02719192       0.02962599      -0.03741411
Cu       7.30039853       2.82709209      16.24460692        3       0.03061990      -0.00017377      -0.04727180
Cu       9.86815558       2.82879906      16.22915125        3      -0.03269163       0.01030965      -0.01074456
Cu       3.47288590       5.02671702      16.23507268        3       0.00881027       0.01338716      -0.03267790
Cu       6.02478717       5.02655636      16.21489526        3       0.01247273       0.02566191       0.05441060
Cu       8.59128198       5.03598198      16.23153777        3      -0.00564047      -0.00249408       0.00207280
Cu      11.14468195       5.03927610      16.24085886        3      -0.01992581      -0.00567086      -0.00997244
Cu       4.74921801       7.23886173      16.22002566        3      -0.00430164       0.00593611       0.00064595
Cu       7.30028560       7.24807223      16.21870894        3       0.02780475      -0.01227051       0.01197980
Cu       9.86211750       7.24788304      16.24734253        3       0.00981479       0.00102423      -0.01348522
Cu      12.41625400       7.23763937      16.23918993        3      -0.02650040       0.02104148       0.00945556
Cu      -0.36604819       1.34663311      18.25038353        2      -0.01773996       0.07464828       0.07272014
Cu       2.18138823       1.35380438      18.27520539        2       0.04397952       0.01965537      -0.01084765
Cu       4.73862569       1.35116779      18.30188419        2      -0.00497346       0.00933741      -0.04063203
Cu       7.28768724       1.35182648      18.28616933        2       0.00595789       0.01085171      -0.00658556
Cu       0.91075302       3.54994474      18.26808770        2      -0.00486725       0.05250486       0.03058931
Cu       3.46377385       3.56187815      18.28618987        2      -0.01823611       0.00015767       0.01998856
Cu       6.00838537       3.56468198      18.27483291        2       0.00246932       0.00068001       0.02520498
Cu       8.56617025       3.55734749      18.26785324        2       0.02862823       0.03058430       0.01505555
Cu       2.17951512       5.77511735      18.28829473        2       0.00614366      -0.01961006      -0.01971069
Cu       4.72250242       5.76945374      18.26202946        2       0.01558596      -0.00924562      -0.01369702
Cu       7.28969123       5.77190825      18.24532197        2       0.02364857      -0.03693058      -0.01008640
Cu       9.85503400       5.77460270      18.28106034        2      -0.01534482      -0.02947987      -0.03237071
Cu       3.45128351       7.98557316      18.26615555        2       0.00397535      -0.00303558      -0.00917970
Cu       6.01497229       7.98216731      18.23889597        2      -0.01306587       0.01220488       0.00475862
Cu       8.56567252       7.99005370      18.26087517        2       0.01852931      -0.01228623       0.02911570
Cu      11.11839086       7.98172854      18.29812083        2       0.00013425       0.01148585      -0.02962036
Cu      -0.37795777      -0.10148596      20.26794280        1      -0.00926535      -0.03993255       0.07872545
Cu       2.17575989      -0.12014817      20.30338645        1       0.06366000       0.01129539      -0.04938130
Cu       4.72625503      -0.12478689      20.35498487        1       0.02666529      -0.00281754      -0.04878122
Cu       7.28190050      -0.10738745      20.34782772        1      -0.00199538      -0.05060662      -0.00955256
Cu       0.90616895       2.08300107      20.32985165        1      -0.02264311       0.04160292      -0.01069134
Cu       3.45589094       2.08409530      20.35416799        1       0.00582884       0.03097517      -0.02201338
Cu       6.01459614       2.09509319      20.36108612        1      -0.03963237      -0.01555047      -0.03553504
Cu       8.55608130       2.09105863      20.32677504        1       0.05364423       0.00461159       0.00606156
Cu       2.16081660       4.29276971      20.33134523        1       0.09199878       0.00879039       0.02290083
Cu       4.73782629       4.30306341      20.34111464        1      -0.05771921      -0.01189461      -0.01993316
Cu       7.28110913       4.29315469      20.32134476        1       0.01646732       0.00902867      -0.02448817
Cu       9.83262321       4.28898466      20.32395206        1       0.03096371      -0.00329893       0.00366333
Cu       3.44964424       6.52401126      20.32485672        1      -0.00001880      -0.06705093      -0.00178649
Cu       6.00915573       6.51058717      20.25161642        1      -0.02885280      -0.03288855       0.05879655
Cu       8.56366746       6.49744587      20.29229521        1       0.01828865       0.03573728      -0.01228135
Cu      11.11687242       6.50945637      20.35974051        1      -0.00103536      -0.00301847      -0.04141946
O       16.18816103       7.67062161      23.15218026        0       0.15083167      -0.05248452       0.09389105
C       17.21994266       7.10762463      23.28670538        0       0.28727627      -0.22955953       0.11425289
O       18.23431819       6.52575685      23.47556659        0      -0.43846136       0.26905328      -0.07375557
