99
Lattice="10.210621920333747 0.0 0.0 5.105310960166873 8.842657971447272 0.0 0.0 0.0 30.421172358872745" Properties=species:S:1:pos:R:3:tags:I:1:forces:R:3 energy=-440.2774658203125 free_energy=-440.2774658203125 stress="0.018578730523586273 2.834014594554901e-06 -9.359791874885559e-08 2.834014594554901e-06 0.018517546355724335 -4.8574525862932205e-05 -9.359791874885559e-08 -4.8574525862932205e-05 0.01102202944457531" pbc="T T F"
Cu       1.26777634       0.76623896      10.10051995        6       0.00139358      -0.00099539      -0.01178736
Cu       3.82072360       0.76796014      10.09838378        6       0.00477092      -0.00737279      -0.00319397
Cu       6.37366850       0.76828986      10.09698922        6       0.00283902      -0.00689546      -0.00192458
Cu       8.92586182       0.76940117      10.09753593        6       0.00235890      -0.01027399      -0.00165951
Cu       2.54385706       2.97343272      10.09924290        6       0.00315347       0.00462330      -0.00389307
Cu       5.09753560       2.97736707      10.09638724        6       0.00237250      -0.00188785      -0.00176076
Cu       7.65059537       2.97827619      10.09633031        6       0.00072203      -0.00080705      -0.00315006
Cu      10.20351980       2.97680903      10.09803790        6       0.00080170      -0.00075540      -0.00412896
Cu       3.82079496       5.18590503      10.09629486        6       0.00147557       0.00073565      -0.00469971
Cu       6.37387365       5.18996525      10.09491115        6       0.00316517      -0.00738594      -0.00538665
Cu       8.92755072       5.18839034      10.09788316        6      -0.00030008      -0.00133983      -0.00935481
Cu      11.47946137       5.18667175      10.09749861        6       0.00414472      -0.00120787      -0.00426812
Cu       5.09710297       7.39984401      10.09660780        6      -0.00143301      -0.00328686      -0.00675164
Cu       7.64926417       7.40111772      10.09600588        6       0.00696136      -0.00825963      -0.00308553
Cu      10.20266469       7.39999348      10.09477747        6       0.00300508      -0.00546992       0.00304780
Cu      12.75604097       7.39956751      10.09759343        6       0.00012456      -0.00503306      -0.00480331
Cu      -0.00211243       1.49525434      12.15826970        5      -0.00400878       0.00004710      -0.00301978
Cu       2.54892748       1.49272221      12.15922852        5      -0.00020244       0.00378315       0.00171364
Cu       5.10285029       1.49465296      12.15782600        5      -0.00566398      -0.00046380       0.00110992
Cu       7.65555126       1.49578319      12.15670957        5      -0.00572316      -0.00324080       0.00266934
Cu       1.27375135       3.70433231      12.15822766        5      -0.00313495       0.00282350       0.00516340
Cu       3.82492237       3.70368265      12.15614067        5      -0.00220164       0.00379754       0.00686803
Cu       6.37880215       3.70681436      12.15462169        5      -0.00368479      -0.00453352       0.00258586
Cu       8.93265105       3.70542303      12.15633000        5      -0.00304111       0.00064193       0.00064603
Cu       2.55090295       5.91486584      12.15589847        5      -0.00775124       0.00356884       0.00832279
Cu       5.10221596       5.91674043      12.15357946        5      -0.00615752      -0.00063142       0.00654217
Cu       7.65553693       5.91750552      12.15365331        5      -0.00079108      -0.00133644       0.00104201
Cu      10.20910422       5.91580115      12.15565109        5      -0.00317027       0.00212698       0.00921790
Cu       3.82672041       8.12817518      12.15633055        5      -0.00846259      -0.00127823       0.00390132
Cu       6.37878370       8.12624866      12.15634865        5      -0.00293185       0.00404252       0.00023566
Cu       8.93112844       8.12634779      12.15640296        5       0.00120070       0.00183952       0.00233967
Cu      11.48423520       8.12668125      12.15612660        5      -0.00367477       0.00043049       0.00856701
Cu      -0.00959764      -0.00143284      14.19395693        4      -0.00139157      -0.00243621       0.00175761
Cu       2.54326943      -0.00192085      14.19631682        4      -0.00166629      -0.00183918       0.00064001
Cu       5.09483242      -0.00250747      14.19766903        4      -0.00125321      -0.00082620      -0.00152873
Cu       7.64709710      -0.00193089      14.19785775        4      -0.00066390      -0.00223736      -0.00165198
Cu       1.26620740       2.20931412      14.19865344        4       0.00046732      -0.00272073      -0.00767779
Cu       3.81792933       2.21080640      14.19569649        4      -0.00073895      -0.00347262      -0.00129230
Cu       6.37269845       2.20915934      14.19465054        4      -0.00176381      -0.00240356      -0.00111503
Cu       8.92574871       2.20731379      14.19415650        4      -0.00155904      -0.00203348       0.00077243
Cu       2.54106523       4.42288300      14.19878862        4       0.00007429      -0.00371746      -0.00381267
Cu       5.09606884       4.42429842      14.19094717        4      -0.00181289      -0.00327963       0.00173268
Cu       7.65085340       4.42324390      14.18872925        4      -0.00179780      -0.00323062       0.00239801
Cu      10.20028901       4.42049625      14.19751822        4       0.00004079      -0.00181261      -0.00179420
Cu       3.81819739       6.63282381      14.19445383        4      -0.00143022      -0.00270519       0.00202860
Cu       6.37344984       6.63318057      14.18924299        4      -0.00198401      -0.00240420       0.00402029
Cu       8.92521139       6.63143248      14.19444466        4      -0.00146927      -0.00243434       0.00175569
Cu      11.47634590       6.63188737      14.19775470        4      -0.00112062      -0.00253399       0.00076375
Cu       1.26116825       0.71833136      16.22567538        3       0.00467482       0.00796732      -0.01097159
Cu       3.81090038       0.71796670      16.22480597        3       0.00606946       0.00614006      -0.00005223
Cu       6.36508887       0.71538300      16.22443005        3       0.00460233       0.00968639       0.00099800
Cu       8.92131730       0.71702463      16.22378813        3      -0.00022558       0.00149623      -0.00050371
Cu       2.53533845       2.92877608      16.22194638        3       0.00699613       0.00738062       0.00607930
Cu       5.09083955       2.92897464      16.21451925        3      -0.00046818       0.00397775       0.01092628
Cu       7.64714914       2.93088218      16.21362342        3      -0.00112569      -0.00099058       0.00670688
Cu      10.19742892       2.92851954      16.22161899        3       0.00038642       0.00094709       0.00280191
Cu       3.81463242       5.14280742      16.22178694        3      -0.00001686      -0.00084551       0.00196201
Cu       6.37292700       5.14569140      16.21422756        3      -0.00262132      -0.00233067       0.00259650
Cu       8.92313648       5.14551124      16.22392626        3      -0.00178263      -0.00291517       0.00104394
Cu      11.47021061       5.14462088      16.22765656        3       0.00422070      -0.00288257       0.00235331
Cu       5.09326646       7.35562384      16.22192331        3      -0.00181617      -0.00289509       0.00154503
Cu       7.64468680       7.35600617      16.22532758        3      -0.00113388      -0.00144100      -0.00063008
Cu      10.19362908       7.35277323      16.22935976        3       0.00235063       0.00098402       0.00179249
Cu      12.74716075       7.35271480      16.22970188        3       0.00348576      -0.00033770      -0.00112075
Cu      -0.00849323       1.45257904      18.25952684        2      -0.00008975       0.00814399       0.00818098
Cu       2.53767121       1.45317534      18.26134585        2       0.00284718       0.00728130       0.00540346
Cu       5.08728477       1.45146765      18.25465477        2       0.00541658       0.00579174       0.00077299
Cu       7.64678174       1.45307102      18.25074230        2       0.00446751       0.00302350       0.00371004
Cu       1.26639243       3.66353506      18.26140040        2      -0.00899000       0.00626702       0.01020529
Cu       3.81199477       3.66514646      18.25196643        2       0.00524233       0.00091907       0.00662339
Cu       6.36680204       3.66695896      18.23879924        2       0.01046850       0.00134326       0.00404248
Cu       8.92849646       3.66394674      18.24963121        2      -0.00324395       0.00867774       0.00400922
Cu       2.54216627       5.87802025      18.26431550        2      -0.00290122       0.00360592       0.01014692
Cu       5.09333148       5.88266127      18.25185458        2       0.00477346       0.00299693       0.00470014
Cu       7.64716797       5.88499834      18.25245378        2       0.00536765      -0.00422527       0.00793339
Cu      10.20093437       5.87689699      18.26730184        2      -0.00568999       0.00482848       0.00959115
Cu       3.81933340       8.09016627      18.26453284        2       0.00165753       0.00639957       0.00499155
Cu       6.37070551       8.09380591      18.26341798        2      -0.00036905      -0.00092395       0.00443712
Cu       8.92247537       8.08962187      18.27043552        2       0.00033339       0.00322738       0.00330821
Cu      11.47334299       8.08755688      18.26950273        2       0.00410868       0.00835424       0.00216779
Cu       0.00331805      -0.02538951      20.32843104        1      -0.00384805       0.00633186      -0.01090858
Cu       2.55618675      -0.02394677      20.33248285        1      -0.00886777       0.00090025      -0.00936254
Cu       5.10590823      -0.02346475      20.33141852        1      -0.00231131      -0.00028575      -0.01265294
Cu       7.65915526      -0.02325204      20.31994096        1      -0.00258424      -0.00242805       0.00115874
Cu       1.27928273       2.18302119      20.31995659        1      -0.00790097       0.00599696       0.00321125
Cu       3.82391600       2.18367370      20.30448078        1       0.00292853       0.00171211       0.00258227
Cu       6.37793104       2.18508733      20.28282228        1      -0.00221841      -0.00018502      -0.00183928
Cu       8.93954030       2.18308689      20.29720642        1      -0.00119832       0.00321862      -0.00776989
Cu       2.54758128       4.39815907      20.31488309        1       0.00477767      -0.00130473      -0.01037088
Cu       5.10112000       4.40563561      20.28283693        1       0.00709522      -0.00900884      -0.01730199
Cu       7.66508017       4.40547430      20.27837710        1      -0.00800550      -0.00441159      -0.00448193
Cu      10.21462639       4.39616839      20.32005189        1       0.00093515       0.00273761      -0.02171814
Cu       3.82808134       6.61422140      20.31516027        1       0.00265929       0.00261295      -0.00623810
Cu       6.38735804       6.61607445      20.30447841        1      -0.00622393      -0.00446626       0.00387136
Cu       8.93880312       6.60950654      20.32451395        1      -0.00665728      -0.00409748      -0.00389432
Cu      11.48678481       6.61087469      20.32697561        1       0.00452888      -0.00379139      -0.00350201
O        5.34972228       4.22262926      23.53491370        0       0.02794430      -0.00701475      -0.01131527
C        6.41113639       3.70767409      23.53137099        0      -0.09039980       0.04322022       0.01290750
O        7.46809311       3.18827037      23.55610757        0       0.08426578      -0.03530970      -0.00623088
