99
Lattice="10.210621920333747 0.0 0.0 5.105310960166873 8.842657971447272 0.0 0.0 0.0 30.421172358872745" Properties=species:S:1:pos:R:3:tags:I:1:forces:R:3 energy=-440.238037109375 free_energy=-440.238037109375 stress="0.018241167068481445 3.101769834756851e-06 8.66129994392395e-08 3.101769834756851e-06 0.01816926710307598 -4.771677777171135e-05 8.66129994392395e-08 -4.771677777171135e-05 0.010802754200994968" pbc="T T F"
Cu       1.24039628       0.75714937      10.09372441        6       0.00398463       0.00081264      -0.00552699
Cu       3.79440642       0.75870546      10.09012645        6      -0.00079105      -0.00326126      -0.00088654
Cu       6.34752103       0.75697209      10.09291496        6      -0.00051301       0.00152720      -0.00421349
Cu       8.89948282       0.75651375      10.09275871        6       0.00112259       0.00213797       0.00299744
Cu       2.51784544       2.97088842      10.08742821        6       0.00018824      -0.00342817       0.00151930
Cu       5.07116014       2.96865885      10.09329820        6       0.00062868      -0.00017026      -0.00024137
Cu       7.62261821       2.96750828      10.09575504        6       0.00232909       0.00222488      -0.00089818
Cu      10.17458208       2.97013976      10.09107454        6       0.00192666      -0.00449402      -0.00025499
Cu       3.79446045       5.18057079      10.09601558        6       0.00093362      -0.00480500      -0.00252583
Cu       6.34710419       5.17854937      10.10168054        6       0.00139750      -0.00000276      -0.00281286
Cu       8.89896420       5.18059160      10.10056460        6      -0.00066203      -0.00248048      -0.01043626
Cu      11.45141326       5.18384981      10.09298121        6       0.00133217      -0.00867170      -0.00739122
Cu       5.07037683       7.38852775      10.09725166        6       0.00327238      -0.00135164      -0.00063723
Cu       7.62340159       7.38922826      10.09811551        6      -0.00224934      -0.00151185      -0.00165820
Cu      10.17600220       7.39212798      10.09279245        6      -0.00254433      -0.00536185      -0.00266207
Cu      12.72903373       7.39083840      10.09454850        6       0.00132021      -0.00237934      -0.00439946
Cu      -0.03140767       1.49055397      12.15132506        5      -0.00224077      -0.00321397      -0.00011541
Cu       2.52517312       1.49247352      12.14622662        5      -0.00823237      -0.00509045       0.00190609
Cu       5.07651455       1.48839244      12.15150396        5      -0.00555759       0.00539263       0.00055613
Cu       7.62558669       1.48746746      12.15390832        5       0.00509118       0.00762910      -0.00079214
Cu       1.24702702       3.70378728      12.14532487        5      -0.00189245      -0.00450845       0.00572247
Cu       3.80056742       3.69839897      12.15223639        5      -0.00230908       0.00860668      -0.00126273
Cu       6.35107780       3.69709238      12.15886025        5      -0.00035400       0.01319718      -0.00431088
Cu       8.90308557       3.70009371      12.15440682        5      -0.00262505       0.00452648      -0.00034722
Cu       2.52178939       5.91330700      12.15406886        5       0.00496150      -0.00411548       0.00310331
Cu       5.07300373       5.90896911      12.15975633        5       0.00539064       0.00397540       0.00296703
Cu       7.62836976       5.91046905      12.16218811        5      -0.00862790       0.00269389      -0.00557548
Cu      10.18149195       5.91513652      12.15484333        5      -0.00686567      -0.00549396      -0.00238178
Cu       3.79793690       8.12063484      12.15608360        5       0.00181621      -0.00071545      -0.00116660
Cu       6.35027267       8.12193012      12.15518624        5      -0.00082578      -0.00549541       0.00250530
Cu       8.90619848       8.12295054      12.15306933        5      -0.01182446      -0.00208673      -0.00071143
Cu      11.45603718       8.12051606      12.15362841        5       0.00115412       0.00579066       0.00056483
Cu      -0.03597408      -0.00099863      14.19101823        4       0.00095956      -0.00194583       0.00284033
Cu       2.51731774       0.00574671      14.18413742        4       0.00151049      -0.01387261       0.00846404
Cu       5.07066367       0.00449279      14.18842961        4       0.00225955      -0.01020155       0.00904288
Cu       7.62436326       0.00247150      14.18850785        4       0.00112244      -0.00596477       0.01412758
Cu       1.24407866       2.21347432      14.17872230        4      -0.00332302      -0.00493420       0.00929362
Cu       3.79295950       2.20958730      14.18936278        4       0.00277452      -0.00291678       0.00276563
Cu       6.34370034       2.21058850      14.19460655        4       0.00712656      -0.00602349       0.00256671
Cu       8.89916540       2.21545316      14.18912830        4       0.00380658      -0.01058165       0.00543450
Cu       2.52193209       4.41847938      14.18530651        4      -0.00174798       0.00090979       0.01015884
Cu       5.06986879       4.41613104      14.19976912        4       0.00490388       0.00532619      -0.00728339
Cu       7.62120840       4.41785364      14.20003700        4       0.01082300       0.00947372      -0.01596141
Cu      10.18120391       4.42170734      14.18307263        4      -0.00309205      -0.00025370       0.00970069
Cu       3.79418495       6.62764770      14.19860957        4       0.00291873       0.00397596      -0.00109897
Cu       6.34541128       6.62928137      14.19907777        4       0.00422312       0.00218083      -0.00597367
Cu       8.90081869       6.63375247      14.19395370        4       0.00122261      -0.00243237      -0.00040824
Cu      11.45485239       6.63227184      14.19096770        4       0.00001224      -0.00151676       0.00578196
Cu       1.25283008       0.72770100      16.21384567        3      -0.00622340      -0.00349241       0.00349880
Cu       3.79619789       0.72014079      16.21791661        3       0.00143607      -0.00167115       0.00439266
Cu       6.35307782       0.71938637      16.22108491        3      -0.00385890      -0.00101812       0.00263990
Cu       8.91170786       0.72504622      16.21951277        3      -0.00497413      -0.00236365       0.00134626
Cu       2.52253869       2.93044564      16.21632223        3      -0.00132599       0.00309874       0.00457204
Cu       5.07088943       2.92706617      16.22557999        3      -0.00169193       0.00036732      -0.00222370
Cu       7.63111654       2.92695512      16.22123399        3      -0.00565217       0.00360100      -0.00235530
Cu      10.18989917       2.93940245      16.21282966        3      -0.00523987      -0.00610883       0.00119356
Cu       3.79852537       5.14267540      16.22567842        3      -0.00430213      -0.00177825       0.00270804
Cu       6.34941518       5.14506589      16.22822922        3       0.00023975      -0.00443511      -0.01477759
Cu       8.90954296       5.14738427      16.21510166        3      -0.00249991      -0.00372114       0.00236099
Cu      11.46436183       5.14481534      16.21677243        3      -0.00448689       0.00072369       0.00463999
Cu       5.07869361       7.36175957      16.22651865        3      -0.00459812      -0.00777943      -0.00331425
Cu       7.63436698       7.35833218      16.21768397        3      -0.00541661      -0.00129824       0.00320085
Cu      10.19062904       7.35863565      16.21974523        3      -0.01344948      -0.00251308       0.00534786
Cu      12.73898964       7.36091850      16.22503079        3      -0.00553120      -0.00667355       0.00336824
Cu      -0.02388333       1.45847061      18.25231694        2       0.00262833      -0.00753467      -0.00003505
Cu       2.52299828       1.45491454      18.25904967        2      -0.00250233       0.00376061      -0.00258843
Cu       5.06821477       1.44709719      18.25872383        2      -0.00070150       0.00697461      -0.00257101
Cu       7.62887073       1.44909490      18.25407596        2      -0.00359927       0.00016605      -0.00939724
Cu       1.24959071       3.66860224      18.25723938        2       0.00197309      -0.00292147      -0.00182157
Cu       3.79166527       3.66257918      18.26188344        2       0.00181226      -0.00094314      -0.00927955
Cu       6.34782870       3.65841094      18.24704348        2      -0.00444191       0.00457712      -0.00710605
Cu       8.91100443       3.66506176      18.24101675        2      -0.00352917      -0.00119025       0.00231817
Cu       2.52061575       5.87797827      18.26604339        2       0.00275216       0.00350333      -0.00532502
Cu       5.07043669       5.87912742      18.25825331        2       0.00167445       0.00157009      -0.00232801
Cu       7.63040924       5.88018699      18.24615334        2      -0.00842287       0.00996253       0.00524311
Cu      10.17968761       5.87870677      18.25432725        2       0.00543025       0.00705913       0.00766949
Cu       3.80199142       8.09151363      18.26432513        2      -0.00378407      -0.00297506       0.00124659
Cu       6.35408577       8.09351076      18.25484265        2      -0.00215663       0.00433464       0.00608530
Cu       8.90236632       8.08745147      18.26222940        2       0.00208977       0.00453673      -0.00429603
Cu      11.45420465       8.08741780      18.26536651        2       0.00339752       0.00058924       0.00057986
Cu      -0.02409533      -0.02755852      20.31872432        1       0.00007749       0.00149392      -0.00806175
Cu       2.52353141      -0.02990815      20.32312808        1       0.00877852       0.00261452      -0.00401910
Cu       5.07424517      -0.03791538      20.32784727        1       0.00355112       0.01059976      -0.00348764
Cu       7.63113136      -0.03706071      20.31735004        1       0.00053999       0.00675162       0.00714521
Cu       1.25313439       2.18046100      20.31354751        1       0.00162269       0.00462877       0.00161665
Cu       3.79896082       2.17265513      20.31978167        1       0.00276926       0.00786547      -0.00244113
Cu       6.35060081       2.16759609      20.29533737        1       0.00422100       0.01310826       0.00444858
Cu       8.91140832       2.17728597      20.28866311        1      -0.00302721       0.00426227       0.00530413
Cu       2.52559747       4.39020676      20.32636205        1      -0.00239214       0.00278497      -0.01586502
Cu       5.07339633       4.38803395      20.29298266        1       0.00124505       0.00469253      -0.01091711
Cu       7.63580986       4.39408598      20.26545366        1       0.00118878      -0.00349618       0.01330791
Cu      10.18877707       4.39225530      20.30167790        1      -0.00055184       0.00319634       0.00435292
Cu       3.80131042       6.60570841      20.31909612        1      -0.00162929      -0.00057258      -0.00339051
Cu       6.35344682       6.60965898      20.29487867        1       0.00746519       0.00145211       0.00022894
Cu       8.90488977       6.60082608      20.31125205        1       0.01319474      -0.00141421       0.00713904
Cu      11.45625323       6.59970457      20.32050492        1       0.00844228       0.00355632       0.00389799
O        6.19290162       4.49871249      23.56449488        0      -0.00221867       0.00181988       0.00054919
C        7.14906884       3.81207838      23.62604848        0      -0.01545919       0.01977652      -0.00933668
O        8.10231810       3.12440113      23.69832548        0       0.03290015      -0.03061795       0.00445329
