99
Lattice="10.210621920333747 0.0 0.0 5.105310960166873 8.842657971447272 0.0 0.0 0.0 30.421172358872745" Properties=species:S:1:pos:R:3:tags:I:1:forces:R:3 energy=-440.25347900390625 free_energy=-440.25347900390625 stress="0.01937233656644821 2.7730129659175873e-06 1.969747245311737e-07 2.7730129659175873e-06 0.019295185804367065 -4.982016980648041e-05 1.969747245311737e-07 -4.982016980648041e-05 0.011582520790398121" pbc="T T F"
Cu       1.22970005       0.74572358      10.08521302        6      -0.01836362      -0.01002003      -0.00182446
Cu       3.78032795       0.73576345      10.09450387        6      -0.00250148       0.01814054      -0.01047099
Cu       6.32810849       0.74625956      10.09202526        6       0.00960983       0.00182756      -0.00902514
Cu       8.88125711       0.74945023      10.09146234        6       0.00221655      -0.01191902      -0.01870515
Cu       2.49921734       2.95831240      10.08413282        6       0.00886148      -0.01808599       0.00710159
Cu       5.05010384       2.95613878      10.08481821        6       0.00256889      -0.00166728      -0.00012877
Cu       7.60870397       2.96240845      10.08995279        6      -0.00791151      -0.00959793      -0.01350797
Cu      10.16022630       2.95739139      10.09183019        6      -0.00199024      -0.00656078      -0.00709872
Cu       3.76777227       5.16949161      10.08463870        6       0.02611172      -0.00088460       0.00820699
Cu       6.32796433       5.17000463      10.08861024        6       0.00370294      -0.00766987      -0.02048187
Cu       8.89176043       5.17033055      10.09210514        6      -0.03409764      -0.01854699       0.00616782
Cu      11.43437490       5.16518978      10.09419640        6       0.00382860       0.00832913      -0.00115468
Cu       5.05130634       7.37800759      10.08916275        6       0.00062358       0.00469250      -0.01557361
Cu       7.61152350       7.37315816      10.09350019        6      -0.00858497      -0.00017015      -0.01784440
Cu      10.16472017       7.37212755      10.09862813        6      -0.01253205       0.01048551      -0.00252000
Cu      12.70725607       7.37923251      10.08273732        6       0.00958859      -0.00239112       0.03009465
Cu      -0.04900248       1.47340690      12.14356412        5       0.00782096      -0.00184462       0.02414444
Cu       2.50477055       1.47253620      12.13971542        5      -0.00424582       0.01072848       0.05203627
Cu       5.05510451       1.48016204      12.14649184        5      -0.00316930      -0.01114108       0.03399836
Cu       7.60886617       1.48233853      12.14803467        5      -0.00304517      -0.02051381       0.02263960
Cu       1.22612474       3.68693433      12.15096995        5       0.00560559      -0.00719269       0.01734529
Cu       3.77776082       3.69489803      12.14150446        5      -0.01190518      -0.02712121       0.02350642
Cu       6.33211284       3.69009516      12.13978289        5      -0.00560611      -0.02329054       0.03271515
Cu       8.88616117       3.68572015      12.15206041        5       0.00926390      -0.01034487       0.00696900
Cu       2.49988302       5.90167018      12.15214345        5      -0.00646641      -0.00304039       0.00130260
Cu       5.05522556       5.89878975      12.14494040        5      -0.01640524       0.00049264       0.00671856
Cu       7.60676890       5.89062968      12.15008354        5       0.01206031       0.01587080      -0.00706306
Cu      10.15620069       5.89324843      12.16089480        5       0.02600868       0.00928374      -0.00610952
Cu       3.77815618       8.10877933      12.14568255        5      -0.00776499      -0.00011787       0.01405698
Cu       6.33632746       8.10237451      12.14285442        5      -0.01697912       0.02141298       0.02575846
Cu       8.88467906       8.10077662      12.15585257        5       0.00876403       0.01635282       0.00104991
Cu      11.43693292       8.11168905      12.15450972        5       0.00026706      -0.00993525       0.00506114
Cu      -0.05498677      -0.02292170      14.18660530        4      -0.00114573      -0.00283841       0.00095013
Cu       2.49667861      -0.02540846      14.19080919        4       0.00142835       0.03943275      -0.03005547
Cu       5.04986041      -0.02307579      14.19752989        4      -0.00752917       0.03108335      -0.03908514
Cu       7.60413258      -0.02208573      14.19713650        4      -0.00094883       0.00668849      -0.01727303
Cu       1.21972568       2.18764097      14.18888354        4       0.01917363       0.01155118      -0.01044342
Cu       3.77126442       2.19343969      14.18652809        4      -0.00152166      -0.00336213      -0.00900062
Cu       6.33179461       2.18549769      14.19084712        4      -0.01200840       0.02266483      -0.01850202
Cu       8.88885547       2.17978617      14.19439565        4      -0.02590569       0.03793159      -0.02226281
Cu       2.49737148       4.40282567      14.19604378        4       0.00009989       0.00304925      -0.03920782
Cu       5.05373588       4.39826891      14.17705478        4      -0.01022303       0.00434586       0.03247541
Cu       7.61039262       4.40087037      14.18287076        4      -0.01659454      -0.02487558       0.04061334
Cu      10.15931755       4.39850361      14.20238248        4      -0.00407637       0.00135194      -0.01106873
Cu       3.77155783       6.61339134      14.18902415        4       0.00391930      -0.00402061       0.00741307
Cu       6.32828442       6.60860519      14.18394646        4      -0.01034560       0.00750370       0.00718436
Cu       8.88033564       6.60840533      14.19913098        4      -0.00146171       0.00386853      -0.01016229
Cu      11.43235762       6.61347259      14.20298454        4      -0.00530128      -0.00132645      -0.03770806
Cu       1.21334629       0.71317943      16.21589877        3       0.01038569       0.00792845      -0.00221290
Cu       3.76381749       0.72037680      16.21812627        3      -0.00020945      -0.00408180       0.00483030
Cu       6.31758442       0.70964540      16.22378788        3       0.00794133       0.01272719       0.02133746
Cu       8.87478092       0.70678375      16.22703166        3      -0.00283764      -0.00234558      -0.00103001
Cu       2.49105635       2.92808031      16.22103877        3      -0.00546867      -0.01502775      -0.01119962
Cu       5.04333280       2.91825042      16.21654730        3       0.01086884       0.01302531      -0.00745647
Cu       7.60297046       2.91721098      16.21816215        3      -0.00769418       0.01021765      -0.00620278
Cu      10.14882940       2.92183922      16.22778528        3       0.02230542       0.00976834      -0.02283964
Cu       3.76842836       5.12748715      16.22052279        3       0.02950243       0.04781684      -0.00992955
Cu       6.31780273       5.13181435      16.20658644        3       0.02174015       0.01433984       0.03745811
Cu       8.86907908       5.13569968      16.22744877        3       0.01330415       0.00250634      -0.00218390
Cu      11.42938457       5.13562059      16.23127868        3      -0.00766001      -0.00107976      -0.00034684
Cu       5.04380772       7.34343682      16.21889994        3      -0.00352746      -0.00069131       0.00069926
Cu       7.59424487       7.34726695      16.21586366        3      -0.00083498      -0.00009767       0.00632139
Cu      10.14703435       7.34770043      16.22807959        3       0.00004224      -0.00047852       0.00240552
Cu      12.69978816       7.34204683      16.22908742        3       0.03452007       0.02288890       0.00967782
Cu      -0.05335330       1.45158277      18.25594032        2      -0.01207727       0.04512138       0.03150171
Cu       2.49078198       1.46447267      18.26017554        2       0.01551348       0.00375718      -0.00441014
Cu       5.03802528       1.46105524      18.26729814        2       0.02144769       0.00524074      -0.03398034
Cu       7.59777981       1.45385383      18.25939119        2       0.00195655       0.01995767      -0.00378979
Cu       1.22166559       3.66631047      18.26166973        2      -0.00992804       0.02592634       0.00538613
Cu       3.76561647       3.66838403      18.25430526        2       0.01421207       0.00342772       0.03655027
Cu       6.32190074       3.67267966      18.23863731        2       0.00813641      -0.00948382       0.02265247
Cu       8.87746587       3.66991107      18.25196657        2       0.01303133       0.00598172      -0.00549092
Cu       2.49812276       5.88474996      18.26499824        2       0.00825909      -0.01277608       0.03751659
Cu       5.04998043       5.88925029      18.25334942        2      -0.00611921      -0.01375504       0.00075471
Cu       7.60149733       5.89945488      18.25646151        2       0.00276282      -0.03460658      -0.03128706
Cu      10.16122177       5.89461145      18.26529593        2      -0.02658285      -0.02940396      -0.01131857
Cu       3.77475007       8.09441144      18.27313642        2      -0.00502138      -0.00509843      -0.03694567
Cu       6.32609822       8.10122104      18.25362017        2      -0.00476630      -0.00576577       0.01691579
Cu       8.87519906       8.10309453      18.25626431        2       0.00240980      -0.01328945       0.03046604
Cu      11.42946859       8.09396348      18.27032909        2      -0.00213714       0.01048040       0.00060714
Cu      -0.03870888       0.00529365      20.32141884        1      -0.00621882      -0.02829305       0.00475166
Cu       2.51043703       0.00207676      20.31407104        1       0.00614828      -0.02312054       0.01567417
Cu       5.05966594      -0.00673187      20.32802080        1       0.01279317      -0.01407436       0.00148973
Cu       7.61767624      -0.00846087      20.32407267        1      -0.01611647       0.00250172       0.00951865
Cu       1.23595048       2.20717632      20.31734001        1      -0.00024042      -0.00322615      -0.00566003
Cu       3.78682458       2.19875525      20.33039509        1      -0.01000641       0.02426413      -0.02054983
Cu       6.33718530       2.20239426      20.30550064        1      -0.00682099      -0.00801382      -0.01258612
Cu       8.89151699       2.20942219      20.30645940        1       0.00563018      -0.02555805      -0.05608276
Cu       2.51744732       4.41163058      20.32244822        1      -0.01007568       0.00760622      -0.00833729
Cu       5.06424934       4.41593446      20.28350753        1      -0.02686156      -0.00622502       0.01496734
Cu       7.62007900       4.42221067      20.27860039        1      -0.01784379      -0.00556901      -0.03199094
Cu      10.17554044       4.42336752      20.30178994        1       0.00400442      -0.02212392       0.00156083
Cu       3.79318884       6.63346672      20.32300722        1      -0.01563024      -0.03031263      -0.00156172
Cu       6.34075168       6.64313949      20.30378880        1      -0.00813764      -0.01303049      -0.02170525
Cu       8.89938206       6.62963093      20.31809305        1      -0.00967262       0.01729556      -0.02818874
Cu      11.45175771       6.62442970      20.33277349        1      -0.00255365       0.00261351      -0.00714365
O        6.96011983       4.71665989      23.56381181        0       0.00932341       0.00202003      -0.02404628
C        7.84184101       3.93661086      23.62172819        0       0.38948399      -0.32599765       0.13764545
O        8.72526677       3.15517189      23.72123611        0      -0.34356791       0.28750569      -0.07344235
