99
Lattice="10.210621920333747 0.0 0.0 5.105310960166873 8.842657971447272 0.0 0.0 0.0 30.421172358872745" Properties=species:S:1:pos:R:3:tags:I:1:forces:R:3 energy=-440.26251220703125 free_energy=-440.26251220703125 stress="0.01841007173061371 3.066379576921463e-06 -1.862645149230957e-08 3.066379576921463e-06 0.018340349197387695 -4.7915149480104446e-05 -1.862645149230957e-08 -4.7915149480104446e-05 0.010950913652777672" pbc="T T F"
Cu       1.26690917       0.77321872      10.09525575        6       0.00179435      -0.00078078      -0.00184619
Cu       3.82036565       0.77308978      10.09602404        6      -0.00166582      -0.00147044      -0.00156158
Cu       6.37242301       0.77385812      10.09580660        6      -0.00064551      -0.00330400      -0.00037539
Cu       8.92449806       0.77369367      10.09584520        6       0.00054687      -0.00120180      -0.00221860
Cu       2.54371007       2.98302349      10.09688094        6      -0.00072033      -0.00090193      -0.00183100
Cu       5.09585841       2.98390887      10.09424534        6      -0.00056207      -0.00157136       0.00181254
Cu       7.64881023       2.98494821      10.09350537        6      -0.00005053      -0.00413717       0.00124424
Cu      10.20176657       2.98388367      10.09499475        6       0.00090539      -0.00206065      -0.00094506
Cu       3.81946232       5.19459623      10.09401047        6      -0.00057351      -0.00277968       0.00325308
Cu       6.37219701       5.19517407      10.09173843        6      -0.00017492      -0.00206475       0.00395852
Cu       8.92616721       5.19503659      10.09287262        6      -0.00071948      -0.00270656       0.00132425
Cu      11.47846033       5.19352054      10.09595236        6      -0.00099174      -0.00054679      -0.00018075
Cu       5.09512151       7.40621865      10.09432764        6       0.00223125      -0.00297603       0.00002907
Cu       7.64945736       7.40586437      10.09320013        6      -0.00187667      -0.00204664       0.00080929
Cu      10.20246417       7.40508890      10.09547362        6      -0.00171468      -0.00221716      -0.00018606
Cu      12.75375058       7.40517167      10.09568443        6      -0.00045117      -0.00152899       0.00072620
Cu      -0.00748139       1.50226737      12.15525921        5       0.00058026      -0.00359072       0.00045290
Cu       2.54495059       1.50169690      12.15742235        5      -0.00247504      -0.00339753      -0.00460617
Cu       5.09666403       1.50227790      12.15668114        5      -0.00021368      -0.00341102      -0.00167315
Cu       7.64927794       1.50220939      12.15595148        5       0.00213592      -0.00225290      -0.00298794
Cu       1.26858991       3.71241850      12.15808368        5      -0.00111311      -0.00332282      -0.00307324
Cu       3.82015443       3.71274942      12.15645024        5       0.00011153      -0.00130991      -0.00241998
Cu       6.37330658       3.71222843      12.15313645        5       0.00025989       0.00033926       0.00189372
Cu       8.92759898       3.71214283      12.15391404        5      -0.00088061      -0.00217241       0.00270634
Cu       2.54380479       5.92329958      12.15711916        5       0.00133927      -0.00284668      -0.00099263
Cu       5.09638141       5.92435814      12.15292618        5       0.00296373      -0.00224444       0.00466449
Cu       7.65109450       5.92388562      12.15137438        5      -0.00370080      -0.00223356       0.00675820
Cu      10.20331411       5.92285235      12.15644465        5      -0.00117445      -0.00314044      -0.00049235
Cu       3.81959374       8.13502461      12.15610674        5       0.00355438      -0.00399840      -0.00113392
Cu       6.37388493       8.13517655      12.15386350        5      -0.00009186      -0.00595437       0.00285425
Cu       8.92703127       8.13458027      12.15562255        5      -0.00291708      -0.00420980      -0.00010962
Cu      11.47823301       8.13432543      12.15730621        5       0.00002471      -0.00291931      -0.00185740
Cu      -0.01298295       0.00078974      14.19349962        4      -0.00122423      -0.00233909       0.00112842
Cu       2.53973020      -0.00074485      14.19584182        4      -0.00116658      -0.00088624      -0.00021006
Cu       5.09070109      -0.00122969      14.19711064        4      -0.00112187      -0.00046801       0.00062186
Cu       7.64330934      -0.00091175      14.19722164        4      -0.00096017      -0.00151628       0.00030993
Cu       1.26289840       2.20993140      14.19668057        4      -0.00054836      -0.00072265      -0.00147749
Cu       3.81432528       2.21131153      14.19472601        4      -0.00104931      -0.00179994       0.00090802
Cu       6.36876105       2.20941434      14.19249317        4      -0.00178410      -0.00103608       0.00104631
Cu       8.92219608       2.20770037      14.19360065        4      -0.00128926       0.00039948       0.00015929
Cu       2.53694853       4.42299881      14.19811967        4      -0.00003954      -0.00185681      -0.00081223
Cu       5.09196035       4.42488120      14.18935799        4      -0.00140981      -0.00271066       0.00224984
Cu       7.64749671       4.42351399      14.18794211        4      -0.00175806      -0.00266170       0.00225622
Cu      10.19689273       4.42140713      14.19676674        4      -0.00078190      -0.00182290       0.00044098
Cu       3.81438558       6.63506392      14.19423071        4      -0.00088057      -0.00285954       0.00159601
Cu       6.36980148       6.63500381      14.19103032        4      -0.00151494      -0.00237196       0.00109418
Cu       8.92259803       6.63358106      14.19324942        4      -0.00166963      -0.00235117       0.00176799
Cu      11.47291903       6.63390054      14.19766958        4      -0.00147357      -0.00268585       0.00158457
Cu       1.25892163       0.71741630      16.22306884        3      -0.00033028      -0.00071814       0.00061200
Cu       3.80980392       0.71768530      16.22537809        3      -0.00072775      -0.00102129      -0.00017023
Cu       6.36251016       0.71590413      16.22429565        3      -0.00028463      -0.00091706       0.00050099
Cu       8.91751017       0.71407628      16.22309909        3       0.00114914       0.00139040       0.00007179
Cu       2.53366454       2.92808107      16.22479576        3      -0.00035074      -0.00034951      -0.00086926
Cu       5.08638711       2.92718160      16.21749272        3      -0.00030729      -0.00016397       0.00109925
Cu       7.64203865       2.92608060      16.21619115        3       0.00007218      -0.00036844       0.00074094
Cu      10.19391180       2.92513021      16.22297077        3       0.00139655       0.00326506      -0.00212018
Cu       3.81109087       5.13876262      16.22225462        3       0.00037541       0.00095723       0.00129744
Cu       6.36817033       5.13982324      16.21402729        3      -0.00172109      -0.00113144       0.00187630
Cu       8.91865650       5.14060464      16.22324433        3      -0.00056024      -0.00041525      -0.00179031
Cu      11.46785007       5.13955927      16.22907817        3       0.00143366       0.00132839      -0.00145826
Cu       5.08811573       7.34914103      16.22243026        3       0.00049738       0.00290101      -0.00031901
Cu       7.64023841       7.35211571      16.22375086        3       0.00107875       0.00056546      -0.00004105
Cu      10.19087509       7.34988277      16.22966758        3       0.00238091       0.00238582      -0.00110403
Cu      12.74472399       7.34854168      16.22861545        3       0.00000492       0.00046570       0.00094858
Cu      -0.01227075       1.44875100      18.25916193        2       0.00424871       0.00347780      -0.00361442
Cu       2.53488817       1.45001391      18.26160738        2      -0.00151326       0.00410900       0.00131278
Cu       5.08519266       1.44846606      18.25615704        2       0.00006238       0.00099867      -0.00196570
Cu       7.64433032       1.44789261      18.25233344        2       0.00181176      -0.00012625      -0.00212791
Cu       1.25929112       3.65929315      18.26165045        2       0.00694555       0.00431444       0.00401455
Cu       3.80983066       3.65959599      18.25396796        2       0.00014556       0.00294160      -0.00000205
Cu       6.36706027       3.66137063      18.23981412        2      -0.00226501      -0.00090573      -0.00253897
Cu       8.92307784       3.66065133      18.24927085        2       0.00174334       0.00117493       0.00083930
Cu       2.53764451       5.87288989      18.26500849        2       0.00113778       0.00310575      -0.00115820
Cu       5.09145971       5.87691929      18.25171309        2      -0.00119744       0.00035864      -0.00047414
Cu       7.64523418       5.87776031      18.25289137        2      -0.00326714       0.00763011      -0.00259758
Cu      10.19513681       5.87372245      18.26647747        2       0.00319362       0.00729006      -0.00107055
Cu       3.81621037       8.08563193      18.26364533        2      -0.00086049       0.00200423      -0.00203236
Cu       6.36685313       8.08692852      18.26013210        2       0.00099308       0.00513878       0.00233190
Cu       8.91844153       8.08515580      18.26802781        2      -0.00226740       0.00259742      -0.00143650
Cu      11.47092890       8.08447703      18.26738805        2       0.00195750       0.00030006       0.00039296
Cu      -0.00303735      -0.03252930      20.32250702        1       0.00032778       0.00271368      -0.00046853
Cu       2.54760833      -0.03284898      20.32559115        1      -0.00073517       0.00297655       0.00169346
Cu       5.09947735      -0.03556443      20.32617512        1      -0.00083947       0.00458774       0.00051709
Cu       7.65356019      -0.03489722      20.31923577        1       0.00007378       0.00325481       0.00406138
Cu       1.27227804       2.17571999      20.31999950        1       0.00205938       0.00646244       0.00408204
Cu       3.81978997       2.17273317      20.30914101        1      -0.00091180       0.00322053      -0.00125582
Cu       6.37280745       2.17304752      20.28609581        1       0.00167328       0.00168930       0.00071612
Cu       8.93381590       2.17464126      20.29512337        1      -0.00229318       0.00527201       0.00038165
Cu       2.54647019       4.38727088      20.31279065        1      -0.00079084       0.00422661      -0.00182735
Cu       5.09928959       4.39139427      20.27927385        1      -0.00247884       0.00234752       0.00202836
Cu       7.65826416       4.39389930      20.27910921        1       0.00152820      -0.00013520       0.00053030
Cu      10.21053794       4.38824536      20.31192757        1      -0.00103824       0.00557695       0.00225506
Cu       3.82598018       6.60431832      20.31197468        1      -0.00354346       0.00183948       0.00090523
Cu       6.38015668       6.60541126      20.30435460        1       0.00075503       0.00393549      -0.00189113
Cu       8.93141530       6.59882126      20.32288180        1      -0.00013114       0.00233604      -0.00263884
Cu      11.48366735       6.59954926      20.32530921        1       0.00017779       0.00348347       0.00014084
O        5.48234223       4.26845318      23.55640709        0       0.00316217       0.00181544      -0.00582046
C        6.52850229       3.72471476      23.56574869        0       0.01070116       0.00002243      -0.00516213
O        7.57235655       3.17773711      23.59351392        0       0.00226490      -0.00155004      -0.00405368
