99
Lattice="10.210621920333747 0.0 0.0 5.105310960166873 8.842657971447272 0.0 0.0 0.0 30.421172358872745" Properties=species:S:1:pos:R:3:tags:I:1:forces:R:3 energy=-440.04400634765625 free_energy=-440.04400634765625 stress="0.01686236262321472 4.036352038383484e-06 3.757886588573456e-07 4.036352038383484e-06 0.016753535717725754 -4.3179839849472046e-05 3.757886588573456e-07 -4.3179839849472046e-05 0.010095670819282532" pbc="T T F"
Cu       0.73941933       0.55417647      10.09411981        6      -0.00027757       0.00356515       0.00366029
Cu       3.29110060       0.55588488      10.10305210        6      -0.00130951      -0.00326118      -0.00737661
Cu       5.84311652       0.55348464      10.10105872        6      -0.00130087       0.00198388      -0.00190268
Cu       8.39721478       0.55295703      10.09046508        6      -0.00586741       0.00520840       0.01100858
Cu       2.01537142       2.76659913      10.09966539        6      -0.00392728      -0.00090334      -0.00230697
Cu       4.56877860       2.76398334      10.10177211        6      -0.00515874       0.00688678      -0.00189920
Cu       7.12100904       2.76433131      10.09573827        6      -0.00344194      -0.00186553       0.00547029
Cu       9.67293587       2.76567132      10.09295747        6      -0.00048864      -0.00238240       0.00734454
Cu       3.29120102       4.97646604      10.09799251        6      -0.00293897      -0.00405459       0.00165183
Cu       5.84610561       4.97537745      10.09875149        6      -0.00803885      -0.00077247      -0.00297256
Cu       8.39634048       4.97439898      10.09821416        6       0.00122831       0.00532321      -0.00093075
Cu      10.94788078       4.97714007      10.09739419        6      -0.00034916      -0.00403346       0.00340812
Cu       4.56758220       7.18614912      10.09299463        6       0.00113888      -0.00028530       0.00317147
Cu       7.12158625       7.18659284      10.09718631        6      -0.00395046       0.00050002      -0.00039954
Cu       9.67140385       7.18584442      10.10327927        6      -0.00120159       0.00367848      -0.00759098
Cu      12.22361094       7.18665803      10.09728237        6      -0.00074901      -0.00092365      -0.00197423
Cu      -0.53971740       1.28755825      12.15270687        5      -0.00091570       0.00379191       0.00688995
Cu       2.01061844       1.29125772      12.16067127        5       0.00074379      -0.00182469      -0.00757844
Cu       4.56399410       1.28993805      12.16279688        5       0.00446520       0.00318989      -0.00421701
Cu       7.11946401       1.28820139      12.15685955        5      -0.00290591       0.00481830      -0.00331076
Cu       0.73303656       3.49986084      12.15802804        5       0.00281543       0.00415130      -0.00101369
Cu       3.28685476       3.49982774      12.16139591        5       0.00456794       0.00699164      -0.00744197
Cu       5.84378655       3.49969844      12.15942754        5      -0.00383523       0.00461774      -0.00046129
Cu       8.39456290       3.49932804      12.15734038        5      -0.00060878       0.00303591       0.00166126
Cu       2.00974142       5.71132813      12.15887522        5       0.00524859      -0.00318397      -0.00532623
Cu       4.56575963       5.71082125      12.15503812        5       0.00305173      -0.00430971       0.00111646
Cu       7.12015792       5.71200263      12.15810104        5      -0.00520193      -0.00548855       0.00068342
Cu       9.66945382       5.71019483      12.16170830        5      -0.00000345       0.00280062      -0.00879867
Cu       3.28847795       7.91943543      12.15334641        5       0.00489390       0.00522218       0.00041862
Cu       5.84248978       7.92058660      12.15509219        5      -0.00163719       0.00136226      -0.00272292
Cu       8.39266526       7.92310227      12.16191361        5       0.00204267      -0.00160941      -0.00754371
Cu      10.94579391       7.92016518      12.16137077        5      -0.00219885       0.00651141      -0.00902265
Cu      -0.54668844      -0.19984864      14.19085008        4      -0.00043464      -0.00016885       0.00154630
Cu       1.99824869      -0.19323569      14.19712208        4       0.00423773      -0.00382873       0.00133295
Cu       4.55218988      -0.19456280      14.19759234        4       0.00329086      -0.00112563       0.00078613
Cu       7.11150276      -0.19847732      14.18973812        4      -0.00031398      -0.00106057       0.00337948
Cu       0.72436129       2.01853474      14.19641758        4      -0.00038825      -0.00352640       0.00248448
Cu       3.27422849       2.01639992      14.20085082        4       0.00668203       0.00121451       0.00046127
Cu       5.83206584       2.01617975      14.19738729        4       0.00011330      -0.00306148      -0.00087366
Cu       8.38850809       2.01550497      14.19206936        4      -0.00090668      -0.00331346       0.00181103
Cu       1.99844851       4.22740698      14.19751737        4       0.00370678      -0.00137233       0.01040528
Cu       4.55286239       4.22477798      14.19711569        4       0.00441929      -0.00048627       0.00225275
Cu       7.10804545       4.22582893      14.19857233        4      -0.00030675       0.00134877      -0.00525803
Cu       9.65917243       4.22855584      14.19937484        4       0.00064284      -0.00291134       0.00085274
Cu       3.28374901       6.43105047      14.19189144        4      -0.00225866       0.00074724       0.00432475
Cu       5.83206189       6.43363050      14.19436525        4       0.00220309      -0.00161358       0.00162629
Cu       8.38265454       6.43740873      14.19774192        4      -0.00018865      -0.00080489       0.00051713
Cu      10.93643575       6.43609243      14.19843166        4       0.00011621      -0.00197103       0.00228782
Cu       0.72293147       0.54241156      16.22540545        3       0.00142392      -0.00172251       0.00086245
Cu       3.27103230       0.54197624      16.22525174        3       0.00045871      -0.00192292       0.00107495
Cu       5.83169479       0.53911453      16.21588323        3      -0.00289913      -0.00264038       0.00004118
Cu       8.38908264       0.53944064      16.21411636        3      -0.00200484      -0.00195664       0.00271009
Cu       1.99716179       2.75404353      16.23245649        3      -0.00156441       0.00193275      -0.00355168
Cu       4.55107100       2.75567558      16.22636725        3      -0.00210535      -0.00433226       0.00046321
Cu       7.10453003       2.75616303      16.21907378        3      -0.00058158      -0.00341911       0.00137411
Cu       9.65657517       2.75676697      16.22594508        3      -0.00032050      -0.00379594       0.00127875
Cu       3.27509013       4.96555038      16.22936907        3      -0.00258145      -0.00394321       0.00134618
Cu       5.82474933       4.96557766      16.22965079        3       0.00155081       0.00011943      -0.00879417
Cu       8.37744016       4.96809208      16.22379166        3      -0.00074968      -0.00254949       0.00178019
Cu      10.93021057       4.96607260      16.23354486        3       0.00422566      -0.00194874      -0.00552535
Cu       4.55634358       7.17219414      16.22231928        3      -0.00090347      -0.00309841       0.00211239
Cu       7.10001850       7.17455905      16.22611376        3       0.00199214       0.00090662       0.00113388
Cu       9.65038878       7.17443073      16.22420162        3       0.00078847      -0.00208234      -0.00083966
Cu      12.21407110       7.17279503      16.21857504        3      -0.00290942      -0.00406089       0.00577760
Cu      -0.54785590       1.28452406      18.25514926        2      -0.00542750      -0.00360052      -0.00976245
Cu       1.99738733       1.28932708      18.26839908        2      -0.00901661      -0.00238538      -0.00526338
Cu       4.54583643       1.28322225      18.25052935        2      -0.00624241       0.00442594       0.01362016
Cu       7.10111190       1.28850071      18.23193404        2      -0.01106895      -0.00537534       0.00333275
Cu       0.71571502       3.49967870      18.27066452        2       0.00681707      -0.00050241      -0.00409501
Cu       3.27038785       3.50031425      18.26758648        2       0.00394274       0.00163255      -0.00072255
Cu       5.82153372       3.50356970      18.25789032        2       0.00357613      -0.00030401      -0.00109265
Cu       8.37567893       3.51055803      18.25188153        2      -0.00655547      -0.00545080      -0.00213142
Cu       1.99277566       5.71168641      18.26879230        2       0.00154809      -0.00061730      -0.00087325
Cu       4.54591844       5.71190347      18.27043566        2       0.00241666      -0.00163247      -0.00546159
Cu       7.09585071       5.71436244      18.26488585        2      -0.00017930       0.00342422       0.00069708
Cu       9.64611962       5.71071342      18.26537416        2       0.00340657       0.00509645       0.00413564
Cu       3.27981569       7.91529738      18.25024222        2      -0.00711654       0.00470848       0.01085827
Cu       5.82643555       7.92075688      18.26921935        2      -0.00649283       0.00135041      -0.00498149
Cu       8.36939352       7.92178637      18.26583193        2      -0.00000427      -0.00440556      -0.00583527
Cu      10.91697782       7.91358844      18.24584200        2       0.01663848      -0.00085978       0.01524954
Cu      -0.56217880      -0.18699435      20.32432364        1      -0.00052862       0.00023097      -0.00405711
Cu       1.99199617      -0.18692643      20.33309608        1       0.00520659       0.00403764      -0.01123429
Cu       4.54363259      -0.19119915      20.31048455        1      -0.00495851      -0.00011038       0.01347164
Cu       7.08964641      -0.19240008      20.26383354        1       0.00581852      -0.00328943       0.02126118
Cu       0.71917484       2.02210861      20.32690206        1      -0.00585381      -0.00066052      -0.00422387
Cu       3.27272081       2.02309008      20.31852448        1       0.00116999      -0.00806957       0.01027980
Cu       5.81757152       2.02390250      20.28074948        1      -0.00344402       0.00471754       0.01726642
Cu       8.37625584       2.02987146      20.25913904        1      -0.00509211       0.00526243       0.00001248
Cu       1.99466825       4.23242026      20.32756447        1       0.00340031       0.00692226      -0.00570173
Cu       4.54733643       4.23637844      20.32311088        1       0.00376122       0.00035178      -0.00174108
Cu       7.09815624       4.23956148      20.31087493        1       0.00680124      -0.00299574      -0.00712233
Cu       9.65237132       4.23497922      20.32155369        1      -0.00078121       0.00027122      -0.00500392
Cu       3.26697628       6.44710945      20.32726028        1       0.00881221      -0.00269818      -0.00476632
Cu       5.82123380       6.44622464      20.33289900        1      -0.00186432       0.00650149      -0.01205716
Cu       8.37256379       6.44507332      20.32461092        1       0.00931596      -0.00044931       0.00011658
Cu      10.92178611       6.44122992      20.32053496        1       0.00722334       0.00255042      -0.00015674
O       22.82033302      10.34187885      23.69657866        0      -0.01759697       0.00426428       0.01484389
C       23.77964218       9.68770802      23.49569093        0       0.00936962       0.00642991      -0.01848361
O       24.74142954       9.03488700      23.30435110        0       0.00467295      -0.00106712      -0.00125336
