99
Lattice="10.210621920333747 0.0 0.0 5.105310960166873 8.842657971447272 0.0 0.0 0.0 30.421172358872745" Properties=species:S:1:pos:R:3:tags:I:1:forces:R:3 energy=-440.21978759765625 free_energy=-440.21978759765625 stress="0.020576320588588715 2.8829090297222137e-06 -3.203749656677246e-07 2.8829090297222137e-06 0.02054363675415516 -5.0838105380535126e-05 -3.203749656677246e-07 -5.0838105380535126e-05 0.012740357778966427" pbc="T T F"
Cu       1.18517880       0.71916471      10.09671656        6      -0.01837325      -0.03378421      -0.00236408
Cu       3.73675773       0.70443494      10.10972770        6      -0.02527608      -0.00727806      -0.03322529
Cu       6.28796547       0.71497469      10.10566286        6      -0.00699393      -0.00435920      -0.02677798
Cu       8.84897374       0.72167071      10.10610079        6      -0.05578001      -0.03091674      -0.03386150
Cu       2.46791334       2.92925979      10.08847548        6      -0.03197468      -0.03042953      -0.00525945
Cu       5.01212673       2.92126548      10.09431515        6      -0.01344967      -0.00659905      -0.02459721
Cu       7.56784854       2.92477954      10.10074274        6      -0.01634662      -0.00762623      -0.04189193
Cu      10.12707932       2.92484933      10.09185612        6      -0.03567079       0.00649210       0.00178994
Cu       3.73608876       5.13972689      10.06629535        6      -0.00989909      -0.00981086       0.04109773
Cu       6.28829213       5.12494230      10.09773566        6      -0.02205883       0.01966133      -0.04783981
Cu       8.84892790       5.14277928      10.07836125        6      -0.04255283      -0.04600482       0.02093623
Cu      11.39968886       5.13199431      10.08461539        6      -0.02328036      -0.00025001       0.00937136
Cu       5.00689077       7.34675973      10.09154869        6      -0.00567680      -0.00723897      -0.00137544
Cu       7.56094868       7.33900975      10.10454480        6      -0.00957480       0.00991744      -0.01900034
Cu      10.12664693       7.34073435      10.11429230        6      -0.06131676       0.00835107      -0.04862044
Cu      12.66725744       7.35281906      10.07409897        6      -0.00242862      -0.00967734       0.04510986
Cu      -0.12675894       1.43613994      12.15889088        5       0.02093235      -0.00316340       0.02616773
Cu       2.42693586       1.43701607      12.14812178        5       0.00222374      -0.00965241       0.06737785
Cu       4.97673729       1.44286850      12.15234016        5       0.01107935      -0.00310333       0.05783515
Cu       7.53436408       1.44498025      12.15946918        5      -0.01403842      -0.03017050       0.04188941
Cu       1.16593201       3.64237588      12.15076177        5      -0.02152920       0.02073166       0.01413225
Cu       3.71595485       3.65975118      12.14042986        5      -0.03417293      -0.02521615       0.04383523
Cu       6.26158752       3.64871420      12.15237517        5      -0.01762452      -0.02170831       0.03517018
Cu       8.81475967       3.64410834      12.14297504        5       0.02588671       0.00470692       0.04469298
Cu       2.44195264       5.86396037      12.13554972        5      -0.03557293       0.00260543       0.02652853
Cu       4.98833611       5.85163725      12.14576074        5      -0.02719387       0.03138214       0.02014183
Cu       7.53319397       5.84205215      12.14546129        5       0.02992506       0.04921663       0.02513677
Cu      10.08965906       5.84501537      12.14588712        5       0.02124508       0.02114113       0.03942632
Cu       3.69933252       8.06587281      12.15317872        5       0.00873053       0.02897988       0.02261098
Cu       6.25395628       8.06135993      12.15276115        5       0.00398239       0.03895907       0.03410669
Cu       8.80813788       8.05836889      12.16789226        5      -0.00004302       0.03035262      -0.02952872
Cu      11.36318658       8.07224345      12.15642987        5       0.02132699       0.01631161       0.02469607
Cu      -0.15549802      -0.05624146      14.20953738        4       0.02601259       0.01407868      -0.04213240
Cu       2.40151550      -0.05862234      14.20744558        4      -0.02077195       0.04812498      -0.05999452
Cu       4.95175457      -0.03627624      14.19633496        4      -0.00624927      -0.01027995       0.00185796
Cu       7.50716788      -0.04001813      14.21869146        4      -0.03408816      -0.01734818      -0.12148498
Cu       1.11684123       2.16190972      14.20229931        4       0.02320433      -0.00291596      -0.02896008
Cu       3.65845989       2.17000264      14.19571725        4       0.02229775      -0.00759116      -0.03181978
Cu       6.21703452       2.17142326      14.20731017        4      -0.00263816      -0.03607065      -0.07972620
Cu       8.78127079       2.15347010      14.20674679        4      -0.00457744       0.01967426      -0.04179852
Cu       2.40140651       4.39377944      14.18807346        4      -0.02603174      -0.03920398       0.00255147
Cu       4.94201029       4.37226953      14.20085953        4       0.02595535      -0.00108687      -0.04648375
Cu       7.51481365       4.36530271      14.18822335        4      -0.03330188      -0.00678818       0.03444526
Cu      10.06037872       4.36910197      14.19425802        4       0.00828167       0.00543698      -0.02065139
Cu       3.68387902       6.58767636      14.19555918        4      -0.01139815      -0.00531535       0.00072872
Cu       6.23590381       6.57782456      14.19201532        4      -0.01267999      -0.00602983       0.00587632
Cu       8.78268585       6.57334856      14.19039950        4       0.01822247       0.00585744       0.01025159
Cu      11.34145232       6.59579597      14.18375919        4      -0.03794808      -0.02582562       0.02747245
Cu       1.10192339       0.68661109      16.23240496        3      -0.02137138      -0.01608042       0.01535975
Cu       3.64835614       0.69715509      16.23356368        3      -0.03427970      -0.01873459      -0.02474653
Cu       6.18827157       0.68650512      16.24104810        3       0.01465329      -0.00859356      -0.01715766
Cu       8.74966035       0.67400011      16.24510698        3       0.02937368       0.00711100       0.00331550
Cu       2.36714431       2.91672428      16.22459748        3      -0.01262618      -0.05308117       0.01775787
Cu       4.90720343       2.89034325      16.23734732        3       0.00804839       0.01432773       0.00570193
Cu       7.46335964       2.87602082      16.22774554        3       0.01492436       0.05663872       0.03967436
Cu      10.01599624       2.89580923      16.23305217        3       0.02530992      -0.03279587      -0.02328346
Cu       3.64046395       5.10455930      16.23790747        3       0.01758785       0.01377330       0.02031819
Cu       6.19369907       5.08499316      16.21747521        3       0.01638638       0.05319281       0.09765124
Cu       8.74962005       5.09417358      16.22891234        3      -0.05644229       0.01126547      -0.00800421
Cu      11.29348058       5.11754171      16.22761966        3       0.03223344      -0.01159191      -0.05832506
Cu       4.92336187       7.30033946      16.23944835        3       0.01836840       0.03428923       0.01196726
Cu       7.47606597       7.30160863      16.22839272        3      -0.03320164       0.01837967       0.00726560
Cu      10.01573612       7.32337233      16.22117940        3       0.04539381       0.00485389      -0.06287414
Cu      12.57672620       7.31187897      16.23246191        3       0.01666032       0.02186277       0.00036745
Cu      -0.20050042       1.41438556      18.26877701        2      -0.04568633       0.02968479       0.01505952
Cu       2.35522282       1.43734522      18.27054029        2      -0.02420461      -0.02952615       0.02075296
Cu       4.89336191       1.42270498      18.29101741        2       0.00797196       0.02325339      -0.04210082
Cu       7.44389585       1.40707247      18.28109772        2       0.00662542       0.04695195      -0.00234550
Cu       1.06099341       3.63402133      18.24514706        2       0.00467127       0.01010220       0.05659389
Cu       3.61703827       3.62967464      18.29377299        2       0.01312915       0.01751013      -0.10379514
Cu       6.15125169       3.62037503      18.27601433        2       0.07261973       0.04182271      -0.00116971
Cu       8.69785127       3.61406120      18.26067397        2       0.03324154       0.05402737       0.00236395
Cu       2.33119311       5.85399123      18.27004673        2       0.05458662      -0.02795006       0.00598012
Cu       4.88686073       5.83954547      18.29239806        2       0.02404902       0.01936526      -0.05508834
Cu       7.42482032       5.84115009      18.27315745        2       0.02866289      -0.02970130      -0.02488016
Cu       9.99129939       5.86597258      18.24244932        2      -0.02878326      -0.09064037       0.07641356
Cu       3.61527846       8.05026692      18.28700885        2       0.01413684       0.00229423      -0.02305924
Cu       6.17120833       8.05544379      18.27433125        2       0.00988381      -0.00446212       0.02032154
Cu       8.71896504       8.06261392      18.25090099        2      -0.02290741       0.01229711       0.09613150
Cu      11.26939463       8.05415421      18.26446234        2       0.02185616       0.03018969       0.03493867
Cu      -0.22148088      -0.04356671      20.33327411        1      -0.00918982      -0.02672620       0.02138706
Cu       2.33129075      -0.04234073      20.33044985        1       0.00992759      -0.02810430      -0.00588114
Cu       4.87635351      -0.04328605      20.31685074        1       0.01830084      -0.03062033       0.04801267
Cu       7.42309590      -0.05278852      20.33617371        1       0.03673786       0.00866637       0.01276015
Cu       1.05270015       2.15290214      20.30499625        1      -0.00597600       0.03753867       0.02593270
Cu       3.61069987       2.15882310      20.36342644        1       0.00906505      -0.01143935      -0.09058911
Cu       6.15945172       2.16485556      20.34660649        1       0.01144395      -0.01828226      -0.00621362
Cu       8.70574132       2.15415479      20.33115746        1       0.02647945       0.00203322      -0.00019957
Cu       2.34037255       4.37456412      20.28894547        1      -0.07303113      -0.00840597      -0.04839236
Cu       4.88381632       4.38338199      20.34227148        1       0.06570981      -0.04248562      -0.00967952
Cu       7.43042374       4.36465317      20.32906774        1       0.00125701       0.01609182      -0.01059071
Cu       9.97723161       4.37096020      20.25366379        1       0.00788476      -0.01726489       0.07588741
Cu       3.60359054       6.59038811      20.35332088        1       0.01855853       0.02168826      -0.08386073
Cu       6.15679571       6.58913918      20.35438860        1       0.01644045      -0.00767307      -0.04127023
Cu       8.70336873       6.58815231      20.29144260        1      -0.00810317       0.00062140       0.03089574
Cu      11.25810485       6.58870866      20.31786607        1      -0.00472076       0.00655776      -0.08665148
O       10.48318606       5.66322772      23.61744565        0      -0.20540182       0.19772653      -0.02087530
C       11.47527384       5.09587001      23.34357807        0       0.49054793      -0.44402921       0.16918528
O       12.47609159       4.47714584      23.18476851        0      -0.20559150       0.20752409      -0.01880552
