99
Lattice="10.210621920333747 0.0 0.0 5.105310960166873 8.842657971447272 0.0 0.0 0.0 30.421172358872745" Properties=species:S:1:pos:R:3:tags:I:1:forces:R:3 energy=-440.2577819824219 free_energy=-440.2577819824219 stress="0.01931781880557537 2.5979243218898773e-06 1.816079020500183e-08 2.5979243218898773e-06 0.01925448700785637 -4.9999915063381195e-05 1.816079020500183e-08 -4.9999915063381195e-05 0.011505771428346634" pbc="T T F"
Cu       1.23168705       0.76418963      10.08899888        6      -0.01994610      -0.01570393      -0.01053977
Cu       3.78466147       0.75802367      10.08733860        6       0.00218260       0.01287100      -0.01107970
Cu       6.33643308       0.76534497      10.08750813        6      -0.00171261      -0.00476714      -0.00603618
Cu       8.88485575       0.76387780      10.09766047        6       0.00526793      -0.01362983      -0.02835599
Cu       2.50597562       2.97664226      10.08022402        6       0.00663820      -0.02039203       0.00917027
Cu       5.06078342       2.97414741      10.08571722        6      -0.00368390      -0.00339828       0.00074744
Cu       7.61418287       2.98000069      10.09314774        6      -0.00857793      -0.00991535      -0.01359388
Cu      10.16284706       2.97522260      10.08829192        6      -0.00320143      -0.00631636      -0.00500942
Cu       3.77988236       5.18280737      10.08522647        6       0.01341587       0.00764043       0.01048676
Cu       6.33608380       5.18762268      10.09820859        6      -0.00127005      -0.00954076      -0.02809489
Cu       8.89493140       5.19287575      10.08555413        6      -0.02923835      -0.02758125       0.01999003
Cu      11.44239173       5.18358100      10.08431043        6      -0.00377948       0.00613924       0.01035173
Cu       5.05704961       7.39302002      10.09793440        6      -0.00382975       0.00062296      -0.02275913
Cu       7.61384940       7.39618600      10.09530243        6      -0.00647420      -0.01438355      -0.02448703
Cu      10.17032819       7.39519247      10.08708610        6      -0.01493655      -0.00276041       0.01017052
Cu      12.71571007       7.39550962      10.08066959        6       0.00491089      -0.01003743       0.02704631
Cu      -0.05193115       1.48642561      12.14251613        5       0.01352364      -0.00486690       0.02846907
Cu       2.50477453       1.48417137      12.13601087        5       0.00475643       0.01115956       0.05394454
Cu       5.05830805       1.48904413      12.14364154        5      -0.00070832      -0.00194032       0.03074813
Cu       7.60889322       1.49270737      12.14772570        5      -0.00181323      -0.01931156       0.03108007
Cu       1.23013749       3.69862164      12.14208119        5       0.00207855      -0.00065997       0.02481284
Cu       3.78590487       3.70300522      12.14383274        5      -0.01665827      -0.02754156       0.02452218
Cu       6.33462689       3.70221544      12.15109825        5      -0.00439428      -0.02448761       0.01086164
Cu       8.88523855       3.70047615      12.14832054        5       0.01499043      -0.00369741       0.00469855
Cu       2.50815455       5.90647422      12.14884694        5      -0.01417772       0.01340098       0.00378856
Cu       5.05948017       5.90582949      12.15688451        5      -0.02266020       0.00668040      -0.01331769
Cu       7.60732868       5.90828811      12.15237600        5       0.02733465       0.00789961      -0.01619661
Cu      10.16212148       5.90857109      12.14827349        5       0.01813583       0.00769357       0.00473483
Cu       3.77689973       8.11489293      12.15109335        5      -0.00155368       0.00760383       0.00932306
Cu       6.33309278       8.11234344      12.14866496        5      -0.00468413       0.03180298       0.01653531
Cu       8.88639564       8.11823499      12.14651542        5       0.01560922       0.00739541       0.01150838
Cu      11.44100792       8.12424835      12.14600737        5       0.00300761      -0.01409109       0.01784816
Cu      -0.05514952      -0.01531191      14.18815981        4       0.02235405       0.00589433      -0.00482894
Cu       2.50161148      -0.01949750      14.18869418        4      -0.00264226       0.04521417      -0.03310454
Cu       5.05573971      -0.01590997      14.19168900        4       0.00343739       0.02752177      -0.02329736
Cu       7.60829958      -0.01442546      14.20095221        4      -0.00591172       0.01574052      -0.06340342
Cu       1.22291975       2.19690305      14.17839329        4       0.01778502       0.00175016      -0.00048925
Cu       3.77434189       2.19360848      14.18456454        4       0.00593929       0.00650276      -0.00819961
Cu       6.33058601       2.19391104      14.19277622        4      -0.00374814       0.01817118      -0.02099265
Cu       8.88446882       2.19295832      14.18963633        4      -0.00464303       0.02731197      -0.01938324
Cu       2.50208597       4.40769102      14.19128218        4       0.00438050       0.00403149      -0.02162962
Cu       5.05440479       4.40656081      14.19477319        4      -0.00577794      -0.00693310      -0.00031316
Cu       7.61208141       4.41777959      14.18586412        4      -0.00802964      -0.03598591       0.02447938
Cu      10.15974055       4.41137633      14.18881874        4       0.01202070       0.00197699      -0.01211817
Cu       3.77730333       6.61958241      14.19868564        4      -0.00172718      -0.00577151      -0.00571147
Cu       6.32776156       6.61861114      14.19326063        4       0.00173583       0.00665048       0.00214712
Cu       8.88498732       6.62622046      14.18866795        4       0.00094212      -0.00877806       0.00282829
Cu      11.44041748       6.62540542      14.19151344        4      -0.00454360      -0.00764997      -0.00225892
Cu       1.23027329       0.71743459      16.21036805        3      -0.00297120      -0.00629885       0.00293273
Cu       3.77877160       0.71063854      16.21807419        3       0.00180369       0.00690467       0.00200732
Cu       6.33257242       0.71004576      16.22443541        3      -0.00623231      -0.00059803       0.00461344
Cu       8.89049005       0.71324021      16.22032607        3      -0.00438530      -0.00370713       0.00452976
Cu       2.50536105       2.92601839      16.21504456        3      -0.00464813      -0.00804587      -0.00328043
Cu       5.05043398       2.91363360      16.22206489        3       0.01111803       0.02576376      -0.02378813
Cu       7.60956724       2.92185347      16.21473706        3      -0.00084888       0.00566452      -0.00011016
Cu      10.16885515       2.92330360      16.21034691        3      -0.01090576       0.00647861       0.01178338
Cu       3.77853576       5.13219534      16.22909889        3       0.00972398       0.00918745      -0.00998016
Cu       6.33135259       5.13326374      16.21333635        3       0.01301586       0.01548701       0.05565568
Cu       8.89050715       5.13617290      16.21829344        3      -0.00945954       0.00233145       0.01194650
Cu      11.44336961       5.13839322      16.21843848        3      -0.01075633       0.00019255       0.00954155
Cu       5.05621527       7.34338675      16.22670588        3       0.00277601       0.01285285       0.00203033
Cu       7.60947356       7.34934684      16.21940379        3      -0.00451610      -0.00599927       0.00317348
Cu      10.15924758       7.34552628      16.22286584        3       0.02212021       0.00415599      -0.00195882
Cu      12.71762085       7.34662544      16.22927811        3      -0.00420576      -0.00217639       0.00374542
Cu      -0.03629832       1.44205904      18.24618283        2      -0.02874354       0.05207289       0.04094735
Cu       2.50857486       1.45110071      18.25460207        2       0.00950143       0.00993056       0.00847053
Cu       5.05114221       1.45088272      18.26762996        2       0.01209728      -0.00293664      -0.01629972
Cu       7.60879991       1.44675511      18.25194410        2       0.00595573       0.01752813       0.02266384
Cu       1.23388497       3.65743039      18.25021152        2      -0.02250201       0.02281929       0.00660705
Cu       3.77385129       3.65746439      18.25715163        2       0.01324367       0.01001649       0.02125104
Cu       6.32756487       3.66180424      18.24142995        2       0.02448446       0.00547760       0.01687051
Cu       8.88843084       3.65660287      18.24375112        2       0.01758617       0.01911190      -0.00799566
Cu       2.50471797       5.87850627      18.26634764        2       0.01212888      -0.01384347       0.01486254
Cu       5.05636531       5.88235905      18.26328456        2       0.00777505      -0.00843518      -0.02481009
Cu       7.61274484       5.88735780      18.25847147        2       0.00671389      -0.04171263      -0.04249037
Cu      10.17240997       5.88133819      18.26100639        2      -0.02873472      -0.03046087      -0.01144076
Cu       3.78478270       8.08888994      18.27255696        2       0.00279088      -0.00138943      -0.03733640
Cu       6.34488561       8.09191984      18.25771954        2      -0.02226152      -0.00399434      -0.01289813
Cu       8.89326918       8.08536170      18.25724581        2      -0.00346228       0.00757611       0.04458033
Cu      11.44139565       8.08306965      18.26672654        2      -0.00942697       0.02182644       0.01310534
Cu      -0.02946210      -0.01660769      20.31546289        1      -0.00995644      -0.00490901       0.01014926
Cu       2.52290302      -0.01825911      20.31528801        1       0.00468715      -0.01106889       0.01630233
Cu       5.06840534      -0.02030107      20.33085132        1       0.00768595      -0.01634995      -0.00954056
Cu       7.62183014      -0.02289258      20.32047159        1      -0.00927333       0.00579305       0.01056460
Cu       1.24549407       2.18696588      20.30486494        1      -0.01079535      -0.00120821       0.00828946
Cu       3.79132536       2.18506821      20.33300953        1      -0.00271918       0.01705803      -0.02990236
Cu       6.34407774       2.19021790      20.30722529        1      -0.00716561      -0.01936038      -0.02330448
Cu       8.89809062       2.18799602      20.29882015        1       0.01926977      -0.02104316      -0.05280939
Cu       2.51395427       4.39652838      20.31364481        1       0.01059445       0.00546169       0.01192770
Cu       5.06649138       4.40293868      20.28475898        1      -0.02033306      -0.00612147       0.01862328
Cu       7.62888738       4.40068294      20.28084446        1      -0.01708007       0.00676116      -0.04061519
Cu      10.17962834       4.39767750      20.29741905        1       0.00618681      -0.00820343      -0.00115485
Cu       3.79220230       6.61984035      20.32845573        1       0.00439015      -0.03048044      -0.01025838
Cu       6.35051010       6.62589059      20.30688281        1      -0.01168915      -0.01805688      -0.01742597
Cu       8.90841231       6.60531988      20.32011581        1      -0.01124022       0.02837977      -0.02897610
Cu      11.45365270       6.60852960      20.33041405        1      -0.00257437       0.00705976      -0.00282186
O        6.73691642       4.65671216      23.58550080        0       0.02802484      -0.00892842      -0.02143083
C        7.61466863       3.87414810      23.66731183        0       0.37193912      -0.33379319       0.13733280
O        8.49194422       3.08831472      23.78457027        0      -0.34885100       0.30168968      -0.07896736
