99
Lattice="10.210621920333747 0.0 0.0 5.105310960166873 8.842657971447272 0.0 0.0 0.0 30.421172358872745" Properties=species:S:1:pos:R:3:tags:I:1:forces:R:3 energy=-440.2569580078125 free_energy=-440.2569580078125 stress="0.019227860495448112 2.5383196771144867e-06 7.636845111846924e-08 2.5383196771144867e-06 0.019160589203238487 -4.99039888381958e-05 7.636845111846924e-08 -4.99039888381958e-05 0.011423513293266296" pbc="T T F"
Cu       1.23251202       0.75594820      10.08762360        6      -0.01852541      -0.00414753      -0.01230024
Cu       3.78497923       0.75036915      10.08862839        6      -0.00238340       0.01579761      -0.01023564
Cu       6.33602967       0.76067172      10.08889465        6       0.00142669      -0.00867211      -0.00515874
Cu       8.88672426       0.75747763      10.09631717        6      -0.00130856      -0.01128965      -0.02384619
Cu       2.50744374       2.96999465      10.07564754        6       0.00037932      -0.01408785       0.02630434
Cu       5.06169360       2.96730899      10.08668166        6      -0.01015180       0.00346621       0.00000360
Cu       7.61534552       2.97278277      10.09358064        6      -0.01517119      -0.00503150      -0.01293668
Cu      10.16295224       2.96854177      10.08927921        6       0.00683904      -0.00515742      -0.00671271
Cu       3.78203270       5.17941612      10.08650285        6       0.00028236      -0.00032778       0.01146392
Cu       6.33548996       5.18195166      10.09717142        6       0.00465221      -0.01377140      -0.02016963
Cu       8.89481615       5.18443332      10.08743197        6      -0.02952734      -0.01864277       0.01536716
Cu      11.44200196       5.17840733      10.08668077        6       0.00152329       0.00039512       0.00315893
Cu       5.05878378       7.38620784      10.09805410        6      -0.01403777       0.00593890      -0.02389379
Cu       7.61359464       7.38904036      10.09380993        6       0.00023548      -0.01155897      -0.01810037
Cu      10.17051360       7.38787796      10.09094266        6      -0.01746909       0.00242070       0.00029842
Cu      12.71399619       7.39252627      10.07960581        6       0.01174924      -0.01553720       0.03277126
Cu      -0.05278471       1.47935277      12.14239136        5       0.01396480       0.00102412       0.02939759
Cu       2.50193996       1.47860666      12.13553484        5       0.00889883       0.01288955       0.04342649
Cu       5.05479930       1.48359272      12.14349229        5       0.00493930      -0.00220602       0.02618042
Cu       7.60723804       1.48703348      12.14991162        5       0.00216488      -0.01680321       0.01614144
Cu       1.22706471       3.69295189      12.14414664        5       0.01009374      -0.00154214       0.01703144
Cu       3.78134625       3.69653297      12.14569646        5      -0.01152904      -0.01688791       0.00988668
Cu       6.33232005       3.69651544      12.15199293        5      -0.00043753      -0.01455244       0.00424634
Cu       8.88487590       3.69528786      12.14860039        5       0.01266969      -0.00372010       0.01077275
Cu       2.50304372       5.90346963      12.14932630        5      -0.00081335       0.00616793       0.00508605
Cu       5.05684485       5.90149300      12.15729795        5      -0.01499854       0.00179513      -0.00286138
Cu       7.60729143       5.90445872      12.15253411        5       0.01484661       0.00218392      -0.00654519
Cu      10.16062454       5.90292343      12.15072633        5       0.01836410       0.00679295       0.00896241
Cu       3.77416147       8.10888686      12.15209148        5       0.00367054       0.00903344       0.00191166
Cu       6.33120770       8.10921069      12.14731943        5       0.00386957       0.01822454       0.02600663
Cu       8.88648760       8.11141203      12.14915070        5       0.00922166       0.01076664       0.00238031
Cu      11.43919894       8.11860800      12.14851804        5       0.00663129      -0.01166685       0.01238655
Cu      -0.05323763      -0.02165233      14.18722844        4       0.00861905       0.00902319       0.00098123
Cu       2.50535780      -0.02371421      14.18775510        4      -0.01681417       0.03508018      -0.01901765
Cu       5.05819875      -0.01989444      14.19098348        4      -0.00406316       0.01251366      -0.00323554
Cu       7.60955060      -0.01912225      14.19996802        4      -0.01104657       0.01517950      -0.03449555
Cu       1.22417008       2.18976422      14.17910720        4       0.00648219       0.00862881       0.00302097
Cu       3.77339952       2.18725931      14.18282139        4       0.00392853       0.00986791       0.00132082
Cu       6.32893416       2.18972138      14.18951502        4       0.00035126       0.00788932       0.00230332
Cu       8.88584376       2.18872947      14.18834766        4      -0.00678545       0.01721909      -0.00535500
Cu       2.50115546       4.40399885      14.19306357        4       0.00086958       0.00490819      -0.02562746
Cu       5.05176066       4.39791113      14.19601826        4      -0.00108069       0.00442471      -0.01008692
Cu       7.61277281       4.40958664      14.18667479        4      -0.01234772      -0.01730554       0.01906438
Cu      10.15975960       4.40709473      14.19240695        4       0.00637513       0.00034317      -0.01073701
Cu       3.77493427       6.61304129      14.20058662        4       0.00277960      -0.00112910      -0.01930813
Cu       6.32596487       6.61355884      14.19600324        4       0.00984608       0.01272782      -0.02038383
Cu       8.88290311       6.61868215      14.19111328        4       0.00133815      -0.00390795       0.00466406
Cu      11.43882467       6.61856228      14.19665204        4      -0.00660032      -0.00274323      -0.01077038
Cu       1.22629206       0.71537380      16.21027382        3       0.00166251      -0.00067871       0.00143256
Cu       3.77698243       0.71048312      16.21885530        3       0.00366707       0.01725587      -0.00149632
Cu       6.32898048       0.70946973      16.22674484        3      -0.00183199       0.00281284       0.00163735
Cu       8.88713378       0.71258646      16.22092036        3      -0.00359172      -0.00265428       0.00261916
Cu       2.50380235       2.92737675      16.21407089        3      -0.00663420      -0.02050755      -0.00643531
Cu       5.04868099       2.91556104      16.22096567        3       0.01352757       0.00705328      -0.01268963
Cu       7.60742249       2.91980232      16.21648368        3      -0.00028880       0.00403738      -0.00488233
Cu      10.16376014       2.92200680      16.21211537        3      -0.00345231       0.00113528       0.00180751
Cu       3.77994730       5.13183760      16.23029968        3       0.00373616       0.01367443      -0.01882984
Cu       6.33177402       5.13375778      16.21323122        3       0.00517933       0.00631424       0.04511612
Cu       8.88525917       5.13558974      16.22333609        3      -0.00283360       0.00125636      -0.00074858
Cu      11.44027601       5.13658267      16.22291717        3      -0.00788306       0.00370430      -0.00074079
Cu       5.05322210       7.34318662      16.22554409        3       0.00166046       0.02243285       0.00068076
Cu       7.60370207       7.34893033      16.22144314        3       0.00440094      -0.00385612      -0.00325609
Cu      10.15620009       7.34675936      16.22586438        3       0.02639935       0.00649222      -0.01746668
Cu      12.71367843       7.34347235      16.23147047        3      -0.00108069       0.01576713       0.00088555
Cu      -0.03705060       1.45292315      18.24715794        2      -0.02377845       0.03047377       0.03064660
Cu       2.50733005       1.45971342      18.25549230        2       0.00872175       0.00369711      -0.00108961
Cu       5.05149228       1.45731597      18.26941919        2       0.00800905       0.00171106      -0.03699049
Cu       7.61171145       1.45291153      18.25748211        2      -0.00391343       0.01184971      -0.01496151
Cu       1.23096490       3.66544952      18.24706131        2      -0.00739664       0.01567944       0.03425385
Cu       3.77429828       3.66272684      18.25498505        2       0.01780449       0.01429791       0.03559474
Cu       6.33119210       3.66782949      18.24047151        2       0.00179372       0.00379758       0.02193385
Cu       8.88905703       3.66643164      18.24640183        2       0.00896755       0.00159580      -0.01570285
Cu       2.50578788       5.88423529      18.26500493        2       0.01212700      -0.01275883       0.03893872
Cu       5.05841783       5.88975090      18.26082056        2       0.00058700      -0.01966346      -0.00021808
Cu       7.61250449       5.89188290      18.25845702        2      -0.00084685      -0.02633626      -0.02980946
Cu      10.17061130       5.88942359      18.26026836        2      -0.01615629      -0.02797991       0.00168910
Cu       3.78501473       8.09534630      18.27239847        2      -0.00113804      -0.00426797      -0.03306863
Cu       6.34274337       8.09886068      18.25438597        2      -0.01890164      -0.00395647       0.01294804
Cu       8.89166865       8.09291071      18.25704635        2      -0.00674782       0.00745667       0.04523267
Cu      11.44202913       8.09017847      18.27068177        2      -0.00668640       0.01599787      -0.00478335
Cu      -0.02934371      -0.00619125      20.31282824        1      -0.00403671      -0.00679298       0.01340609
Cu       2.52214738      -0.00738862      20.31416028        1       0.00900560      -0.01535814       0.01366131
Cu       5.07135049      -0.01045816      20.32758286        1      -0.00358434      -0.01820740       0.00065125
Cu       7.62291191      -0.01132993      20.32463043        1      -0.00163672      -0.00893479       0.00724512
Cu       1.24588806       2.19704090      20.30685708        1      -0.00798275       0.00756240       0.00467304
Cu       3.79191017       2.19625403      20.33181420        1      -0.00215445       0.01087951      -0.02730064
Cu       6.34478204       2.19863889      20.30418952        1      -0.00910018      -0.00928088      -0.00900962
Cu       8.89958741       2.19649752      20.29842728        1       0.01830581      -0.00851463      -0.03652681
Cu       2.51802297       4.40725097      20.31075412        1      -0.00445285       0.00464487       0.01084554
Cu       5.06717664       4.41235341      20.28769197        1      -0.01671165      -0.00751641      -0.00385923
Cu       7.62851422       4.41082233      20.28134665        1      -0.01590467       0.00431444      -0.03828962
Cu      10.17925501       4.40843296      20.29454730        1       0.02031832      -0.00701113       0.00983082
Cu       3.79706209       6.63031925      20.33004929        1      -0.01222024      -0.03228481      -0.02060028
Cu       6.35009744       6.63525894      20.30865905        1      -0.00343659      -0.01320273      -0.03119736
Cu       8.90964933       6.61675092      20.31706928        1      -0.01362293       0.02667597      -0.02007060
Cu      11.45598506       6.61991416      20.33243071        1       0.00140482      -0.00494109      -0.00785506
O        6.75698513       4.65996274      23.57032951        0      -0.03770345       0.04415562      -0.02821071
C        7.63195494       3.87552050      23.65177594        0       0.38531119      -0.32207403       0.12821822
O        8.50910042       3.09086525      23.76875316        0      -0.28880259       0.23603401      -0.07062010
