99
Lattice="10.210621920333747 0.0 0.0 5.105310960166873 8.842657971447272 0.0 0.0 0.0 30.421172358872745" Properties=species:S:1:pos:R:3:tags:I:1:forces:R:3 energy=-440.2861328125 free_energy=-440.2861328125 stress="0.018399212509393692 2.9671937227249146e-06 -1.3504177331924438e-08 2.9671937227249146e-06 0.018329057842493057 -4.81167808175087e-05 -1.3504177331924438e-08 -4.81167808175087e-05 0.010909337550401688" pbc="T T F"
Cu       1.26725580       0.77107686      10.09173781        6      -0.00534624      -0.00405411       0.00573879
Cu       3.81819397       0.76927035      10.09433892        6       0.00053848       0.00134348       0.00145084
Cu       6.37054432       0.76857048      10.09559111        6      -0.00019806       0.00418047      -0.00078210
Cu       8.92406474       0.76938853      10.09375865        6      -0.00011303       0.00038238       0.00221960
Cu       2.54249885       2.98338074      10.09481723        6      -0.00072298      -0.00854843       0.00076457
Cu       5.09393117       2.98064856      10.09583382        6       0.00199551      -0.00087402      -0.00101635
Cu       7.64757846       2.97999237      10.09428809        6      -0.00203490       0.00191032       0.00040856
Cu      10.20078138       2.98129872      10.09382860        6      -0.00242935      -0.00282581       0.00141736
Cu       3.81766041       5.19261765      10.09613895        6       0.00257457      -0.00211942       0.00016358
Cu       6.37025573       5.19163540      10.09397595        6       0.00305358      -0.00288719       0.00226182
Cu       8.92461095       5.19171282      10.09231702        6      -0.00676727      -0.00338580       0.00859587
Cu      11.47631524       5.19237590      10.09549326        6      -0.00056684      -0.00411932       0.00083968
Cu       5.09488566       7.40192514      10.09360592        6      -0.00109712       0.00153458       0.00343594
Cu       7.64750009       7.40187630      10.09322706        6      -0.00002981      -0.00129597       0.00420947
Cu      10.20067825       7.40079423      10.09633998        6      -0.00577583       0.00287586      -0.00077921
Cu      12.75148685       7.40171175      10.09582014        6       0.00503828       0.00169273       0.00117551
Cu      -0.00911083       1.50038845      12.15461438        5      -0.00034440      -0.00380678      -0.00023164
Cu       2.54209349       1.50092561      12.15407611        5       0.00316597      -0.00354033       0.00681284
Cu       5.09426333       1.50064912      12.15599349        5       0.00061752      -0.00286263       0.00144615
Cu       7.64844348       1.50075774      12.15466736        5       0.00059930      -0.00575314       0.00550260
Cu       1.26598002       3.71135001      12.15647816        5       0.00281493      -0.00244575       0.00153797
Cu       3.81852097       3.71270697      12.15649120        5      -0.00088590      -0.00615225       0.00210770
Cu       6.37168733       3.71167052      12.15524413        5       0.00022791      -0.00478268      -0.00177309
Cu       8.92508086       3.71116562      12.15505469        5       0.00022557      -0.00307422      -0.00215815
Cu       2.54170149       5.92257695      12.15774586        5       0.00278676      -0.00338855       0.00233436
Cu       5.09626129       5.92333998      12.15595638        5      -0.00354142      -0.00350516       0.00068821
Cu       7.64740218       5.92234516      12.15539574        5       0.00399944      -0.00213782      -0.00509300
Cu      10.20062451       5.92129354      12.15728948        5       0.00018864      -0.00153473      -0.00049270
Cu       3.81932527       8.13263556      12.15592928        5      -0.00079170      -0.00216078       0.00136590
Cu       6.37207390       8.13310565      12.15448332        5       0.00102818      -0.00153055       0.00117447
Cu       8.92385276       8.13266796      12.15653325        5       0.00032264      -0.00230943      -0.00272550
Cu      11.47644851       8.13327238      12.15780191        5       0.00127868      -0.00466175       0.00199378
Cu      -0.01426923       0.00053033      14.19567625        4      -0.00078786      -0.00141354      -0.00483420
Cu       2.53853963       0.00019881      14.19634754        4      -0.00081365       0.00109790      -0.00747583
Cu       5.08945392      -0.00002939      14.19802946        4      -0.00052801      -0.00063906      -0.00381679
Cu       7.64221790      -0.00063632      14.19780198        4       0.00045583       0.00016251      -0.00557555
Cu       1.26241362       2.21073363      14.19580432        4      -0.00056166      -0.00137072      -0.00379303
Cu       3.81340359       2.21110331      14.19616469        4      -0.00135481      -0.00136200      -0.00399536
Cu       6.36691193       2.20991419      14.19375888        4      -0.00139621      -0.00128326      -0.00149073
Cu       8.92068195       2.20970185      14.19462655        4      -0.00137203      -0.00152746      -0.00318643
Cu       2.53679333       4.42249447      14.19779091        4      -0.00053136      -0.00182599      -0.00340480
Cu       5.09032875       4.42353189      14.19276683        4      -0.00144279      -0.00265287      -0.00058903
Cu       7.64558400       4.42215518      14.19185863        4      -0.00183490      -0.00251301      -0.00008931
Cu      10.19613444       4.42137371      14.19767010        4       0.00070852      -0.00092619      -0.00553290
Cu       3.81338763       6.63408356      14.19686549        4      -0.00082404      -0.00269114      -0.00275521
Cu       6.36805232       6.63451633      14.19543919        4      -0.00154490      -0.00260397      -0.00316914
Cu       8.92107474       6.63310746      14.19550423        4      -0.00161246      -0.00227895      -0.00016199
Cu      11.47144145       6.63297508      14.19975473        4      -0.00077511      -0.00226904      -0.00314400
Cu       1.25963011       0.71915248      16.22166134        3       0.00061256       0.00061137       0.00044392
Cu       3.81060018       0.71886078      16.22482133        3      -0.00174945      -0.00092004       0.00019251
Cu       6.36323933       0.71832717      16.22371804        3      -0.00047248      -0.00171960       0.00073668
Cu       8.91890505       0.71734367      16.22209177        3      -0.00083079      -0.00109317       0.00004552
Cu       2.53458063       2.93016466      16.22442688        3      -0.00154117      -0.00203415      -0.00057947
Cu       5.08640556       2.93007243      16.21964290        3      -0.00145714      -0.00246788      -0.00009277
Cu       7.64177191       2.92665945      16.21823108        3       0.00119375      -0.00028094      -0.00091193
Cu      10.19525982       2.92912386      16.22165322        3      -0.00043026      -0.00113398      -0.00016507
Cu       3.81191547       5.14051259      16.22265918        3      -0.00128792      -0.00065944       0.00074433
Cu       6.36643994       5.13900910      16.21582848        3       0.00022538       0.00597587       0.00425547
Cu       8.91809504       5.14060026      16.22118922        3       0.00094232       0.00311160       0.00179758
Cu      11.46984939       5.14068743      16.22766705        3      -0.00142807      -0.00092872       0.00037435
Cu       5.08819858       7.35138634      16.22188992        3       0.00046388       0.00178194       0.00220535
Cu       7.64139938       7.35382149      16.22173209        3      -0.00042464      -0.00087797       0.00110446
Cu      10.19385376       7.35302432      16.22778245        3      -0.00164537      -0.00159420       0.00067237
Cu      12.74577707       7.34985584      16.22734184        3       0.00027088       0.00299470       0.00213956
Cu      -0.00902650       1.45249309      18.25643186        2      -0.00553901       0.00236973       0.00780208
Cu       2.53300587       1.45354183      18.26272721        2       0.00563504       0.00036311      -0.00351311
Cu       5.08506740       1.44853207      18.25562684        2      -0.00085926       0.00274368       0.00102457
Cu       7.64704848       1.44661835      18.25247316        2      -0.00591408       0.00579961      -0.00119841
Cu       1.26124466       3.66258021      18.26277333        2      -0.00361997       0.00359601      -0.00630507
Cu       3.80951999       3.66101588      18.25370595        2       0.00209851       0.00057500       0.00220570
Cu       6.36767603       3.66007054      18.23903706        2      -0.00240412       0.00459162       0.01178602
Cu       8.92418352       3.66315470      18.24852781        2       0.00086913       0.00531397      -0.00314538
Cu       2.53719132       5.87540822      18.26374581        2       0.00205096       0.00077221       0.00131363
Cu       5.09124386       5.87846557      18.25096715        2      -0.00120452      -0.00029708       0.00495494
Cu       7.64325385       5.88270970      18.25100419        2       0.00174747      -0.01072620       0.00273273
Cu      10.19534107       5.88039157      18.26358899        2      -0.00404692      -0.00958794       0.00352362
Cu       3.81596524       8.08851278      18.26220047        2       0.00097009      -0.00190864       0.00456881
Cu       6.36686109       8.09026845      18.25894018        2      -0.00421193       0.00007595       0.00050831
Cu       8.91555506       8.08742438      18.26586358        2       0.00597978       0.00336683       0.00357857
Cu      11.47248152       8.08546667      18.26710148        2      -0.00432491       0.00548088       0.00208234
Cu      -0.00540474      -0.03106453      20.31973287        1      -0.00139744       0.00335207       0.00177993
Cu       2.54350996      -0.03253926      20.32481731        1       0.00531166       0.00302578       0.00289289
Cu       5.09567165      -0.03587259      20.32376976        1       0.00218247       0.00077836       0.00122688
Cu       7.65116662      -0.03553050      20.32270848        1       0.00240013       0.00126593      -0.00550853
Cu       1.26953242       2.17799543      20.32500299        1       0.00261735       0.00319571      -0.00784654
Cu       3.81703043       2.17144414      20.30982203        1       0.00457284       0.00568830      -0.00419652
Cu       6.37245857       2.17057243      20.28650320        1      -0.00562025       0.00462382      -0.00342519
Cu       8.93079629       2.17597779      20.29355780        1       0.00684646       0.00037355      -0.00211170
Cu       2.54583932       4.38681918      20.31122828        1      -0.00323625       0.00899382       0.00908195
Cu       5.09712389       4.38857548      20.27786804        1       0.00203244       0.00763242       0.00169959
Cu       7.65616719       4.39045127      20.27802011        1      -0.00197043       0.01432773      -0.00777891
Cu      10.20816620       4.39028349      20.30965436        1       0.00189653       0.00546921       0.00239823
Cu       3.82415443       6.60356969      20.30962781        1      -0.00205774       0.00640345       0.00358938
Cu       6.37737680       6.60526938      20.30319412        1       0.00058152       0.00171084      -0.00531073
Cu       8.92746626       6.59729881      20.32061722        1       0.00370508       0.00976588      -0.00033554
Cu      11.48170154       6.59932633      20.32506854        1      -0.00119662       0.00477705      -0.00204690
O        5.51927008       4.28066064      23.55545990        0       0.01444235       0.00074970      -0.00874152
C        6.56228981       3.73059130      23.56717798        0      -0.00271111      -0.00285495      -0.00236447
O        7.60093092       3.17405690      23.59817785        0       0.00633898       0.00136435      -0.00746197
