99
Lattice="10.210621920333747 0.0 0.0 5.105310960166873 8.842657971447272 0.0 0.0 0.0 30.421172358872745" Properties=species:S:1:pos:R:3:tags:I:1:forces:R:3 energy=-440.27606201171875 free_energy=-440.27606201171875 stress="0.018455974757671356 3.0887313187122345e-06 3.3015385270118713e-07 3.0887313187122345e-06 0.018354594707489014 -4.89894300699234e-05 3.3015385270118713e-07 -4.89894300699234e-05 0.010806300677359104" pbc="T T F"
Cu       1.27203545       0.74150483      10.10071616        6       0.00204217       0.00419221      -0.00466231
Cu       3.82484111       0.74151992      10.10119370        6       0.00165893       0.00380883      -0.00425540
Cu       6.37745788       0.74134897      10.10115671        6       0.00153760       0.00407908      -0.00389055
Cu       8.93013461       0.74150321      10.10065937        6       0.00150760       0.00372394      -0.00389228
Cu       2.54828138       2.95240792      10.10149159        6       0.00246971       0.00268301      -0.00424315
Cu       5.10110926       2.95231278      10.10157664        6       0.00159200       0.00290448      -0.00404966
Cu       7.65372751       2.95256405      10.10093208        6       0.00195988       0.00228394      -0.00381244
Cu      10.20645039       2.95254866      10.10082387        6       0.00218698       0.00260472      -0.00394600
Cu       3.82470265       5.16274855      10.10091563        6       0.00177654       0.00353616      -0.00270675
Cu       6.37743191       5.16319898      10.10044913        6       0.00157333       0.00268040      -0.00261189
Cu       8.93020981       5.16324033      10.10030627        6       0.00195377       0.00344345      -0.00243861
Cu      11.48291120       5.16308957      10.10078293        6       0.00107666       0.00309472      -0.00225804
Cu       5.10086593       7.37332034      10.10027645        6       0.00209225       0.00434753      -0.00318833
Cu       7.65370352       7.37370460      10.10021109        6       0.00230522       0.00365150      -0.00289779
Cu      10.20645531       7.37346657      10.10061414        6       0.00188509       0.00391358      -0.00207418
Cu      12.75905038       7.37335345      10.10062428        6       0.00142118       0.00405377      -0.00244489
Cu       0.00107137       1.48052980      12.15972314        5      -0.00027069       0.00142055       0.00051610
Cu       2.55368466       1.48035226      12.16031441        5      -0.00092790       0.00169500       0.00004956
Cu       5.10631295       1.48009065      12.16090400        5      -0.00049958       0.00213615       0.00037483
Cu       7.65904085       1.48031231      12.16026331        5      -0.00065154       0.00151065       0.00054141
Cu       1.27737285       3.69135065      12.16090420        5      -0.00051836       0.00160009      -0.00056036
Cu       3.82981857       3.69124967      12.16115319        5      -0.00072268       0.00137948      -0.00071879
Cu       6.38271956       3.69129447      12.16047526        5      -0.00095369       0.00145394       0.00000229
Cu       8.93571567       3.69162368      12.16018521        5      -0.00113006       0.00051504      -0.00020127
Cu       2.55354480       5.90198496      12.16108185        5      -0.00124864       0.00142759      -0.00053802
Cu       5.10617653       5.90204229      12.16039974        5      -0.00045702       0.00126474      -0.00079622
Cu       7.65924142       5.90228638      12.16011819        5      -0.00052544       0.00169843      -0.00078322
Cu      10.21188291       5.90207951      12.16112240        5      -0.00062866       0.00195012      -0.00094480
Cu       3.82993264       8.11237935      12.16020117        5      -0.00096040       0.00243721       0.00018614
Cu       6.38262110       8.11256001      12.15957725        5      -0.00027748       0.00212147       0.00036812
Cu       8.93563307       8.11236777      12.16058105        5      -0.00106586       0.00165077      -0.00022996
Cu      11.48808899       8.11221882      12.16110416        5      -0.00127327       0.00175940      -0.00034390
Cu      -0.00217732      -0.00292156      14.19691112        4      -0.00148095      -0.00212277       0.00047776
Cu       2.55031215      -0.00295147      14.19760939        4      -0.00140676      -0.00216872       0.00046214
Cu       5.10296796      -0.00353535      14.19900486        4      -0.00163478      -0.00238377       0.00109245
Cu       7.65554514      -0.00314403      14.19840195        4      -0.00158611      -0.00247437       0.00098952
Cu       1.27398386       2.20777611      14.19742431        4      -0.00136659      -0.00212176       0.00016173
Cu       3.82649874       2.20755779      14.19801830        4      -0.00163769      -0.00237677       0.00069317
Cu       6.37963688       2.20761623      14.19791779        4      -0.00165099      -0.00245890       0.00055370
Cu       8.93236358       2.20791186      14.19689162        4      -0.00134527      -0.00236279       0.00038370
Cu       2.55008868       4.41938763      14.19870203        4      -0.00172910      -0.00250395       0.00120556
Cu       5.10312970       4.41923704      14.19757170        4      -0.00173681      -0.00248230       0.00101635
Cu       7.65634181       4.41940657      14.19701811        4      -0.00157236      -0.00237144       0.00103660
Cu      10.20854609       4.41923940      14.19847737        4      -0.00130704      -0.00210075       0.00109084
Cu       3.82646514       6.62958519      14.19812130        4      -0.00173070      -0.00233403       0.00134201
Cu       6.37966576       6.62999921      14.19690917        4      -0.00160270      -0.00228048       0.00117761
Cu       8.93219419       6.62973418      14.19864037        4      -0.00135373      -0.00210406       0.00127430
Cu      11.48461409       6.62954058      14.19971730        4      -0.00170693      -0.00238515       0.00155977
Cu       1.27343444       0.73253459      16.22370492        3      -0.00170171      -0.00253418       0.00109779
Cu       3.82368914       0.73051469      16.22578279        3      -0.00172414      -0.00241239       0.00094148
Cu       6.37825199       0.72992216      16.22586716        3      -0.00171982      -0.00264687       0.00068840
Cu       8.93296216       0.73159869      16.22353519        3      -0.00169739      -0.00265719       0.00101082
Cu       2.54725785       2.94180876      16.22444397        3      -0.00168997      -0.00234707       0.00083401
Cu       5.10080372       2.94124430      16.22240781        3      -0.00183087      -0.00264825       0.00057535
Cu       7.65730381       2.94168562      16.22150858        3      -0.00168930      -0.00265969       0.00077217
Cu      10.20895705       2.94231877      16.22328255        3      -0.00164645      -0.00248186       0.00096638
Cu       3.82463335       5.15519450      16.22576357        3      -0.00178075      -0.00245965       0.00073355
Cu       6.37955627       5.15612595      16.22225846        3      -0.00179394      -0.00248499       0.00075391
Cu       8.93296125       5.15593766      16.22585721        3      -0.00173693      -0.00255579       0.00079278
Cu      11.48310780       5.15476191      16.22967432        3      -0.00163814      -0.00245383       0.00075745
Cu       5.10233640       7.36785383      16.22447710        3      -0.00176029      -0.00270910       0.00115274
Cu       7.65552197       7.36765602      16.22610943        3      -0.00183460      -0.00259231       0.00096582
Cu      10.20696689       7.36495418      16.23110814        3      -0.00164589      -0.00239950       0.00090521
Cu      12.75949197       7.36530681      16.22962530        3      -0.00159085      -0.00245439       0.00090040
Cu       0.00198605       1.47215864      18.26011358        2      -0.00019661      -0.00006547      -0.00425558
Cu       2.54593516       1.47187822      18.26253126        2      -0.00042639      -0.00039389      -0.00398718
Cu       5.09808289       1.46760904      18.25469758        2      -0.00088661      -0.00120623      -0.00288825
Cu       7.65941084       1.46904628      18.25342021        2       0.00052801      -0.00112716      -0.00188984
Cu       1.27254052       3.68222933      18.26342328        2      -0.00089071       0.00028936      -0.00445599
Cu       3.82145835       3.68203833      18.25164615        2      -0.00201880      -0.00074392      -0.00160799
Cu       6.38012483       3.68245392      18.24035147        2       0.00085915      -0.00103940       0.00034040
Cu       8.93729116       3.68351548      18.25251499        2       0.00082591       0.00052123      -0.00231593
Cu       2.54967795       5.89757725      18.26552399        2      -0.00038357      -0.00018375      -0.00409940
Cu       5.10267324       5.90165642      18.25390618        2       0.00012573       0.00102129      -0.00484981
Cu       7.65701577       5.90175427      18.25586129        2       0.00003585       0.00061316      -0.00429525
Cu      10.20848997       5.89685834      18.26922607        2      -0.00044450      -0.00007229      -0.00469091
Cu       3.82873784       8.10982099      18.26559849        2      -0.00045691      -0.00050587      -0.00679082
Cu       6.37949204       8.11055153      18.26381470        2       0.00003443      -0.00088874      -0.00449510
Cu       8.93038734       8.10731643      18.27040318        2      -0.00058406      -0.00004803      -0.00265272
Cu      11.48453030       8.10657788      18.27018349        2      -0.00092559      -0.00040887      -0.00497635
Cu       0.00776034      -0.00514412      20.32425093        1       0.00213373       0.00025597       0.00346070
Cu       2.55848961      -0.00579271      20.32894383        1      -0.00010639      -0.00130040       0.00113333
Cu       5.11057714      -0.00764748      20.32513325        1      -0.00064279      -0.00479259       0.00393423
Cu       7.66463798      -0.00676936      20.32170824        1       0.00060891      -0.00183411       0.00393262
Cu       1.28245233       2.20354065      20.32320055        1       0.00024297      -0.00040023       0.00297500
Cu       3.83012132       2.19991182      20.30179687        1      -0.00217982      -0.00180281       0.00606424
Cu       6.38421466       2.19963676      20.27832999        1       0.00120221      -0.00316250       0.00836179
Cu       8.94534800       2.20212128      20.29632396        1       0.00276481      -0.00015808       0.00423781
Cu       2.55441487       4.41578056      20.30706691        1      -0.00090301       0.00142304       0.00546612
Cu       5.10968434       4.42057216      20.27077105        1      -0.00064748       0.00139017       0.00832639
Cu       7.66901466       4.42098960      20.27924419        1       0.00254297       0.00137229       0.00815689
Cu      10.21958585       4.41516714      20.31634361        1       0.00116718       0.00209072       0.00400592
Cu       3.83570291       6.63285655      20.31205247        1       0.00046857       0.00025433       0.00626918
Cu       6.39091587       6.63131015      20.30696915        1       0.00090495       0.00414817       0.00514415
Cu       8.94176415       6.62563862      20.32461055        1       0.00119576       0.00369085       0.00376556
Cu      11.49405457       6.62746233      20.32623012        1      -0.00080765       0.00052659       0.00276654
O        5.10844826       4.13956173      23.48479719        0       0.00893584       0.00141995      -0.00146282
C        6.19286201       3.67575701      23.46583343        0      -0.03039420       0.01875661       0.00872207
O        7.27530276       3.20962594      23.47938398        0       0.05371814      -0.02113766       0.00073802
