99
Lattice="10.210621920333747 0.0 0.0 5.105310960166873 8.842657971447272 0.0 0.0 0.0 30.421172358872745" Properties=species:S:1:pos:R:3:tags:I:1:forces:R:3 energy=-440.3150329589844 free_energy=-440.3150329589844 stress="0.01941554620862007 2.787448465824127e-06 7.543712854385376e-08 2.787448465824127e-06 0.01934448629617691 -5.063926801085472e-05 7.543712854385376e-08 -5.063926801085472e-05 0.011538917198777199" pbc="T T F"
Cu       0.95247900       0.66659833      10.10056964        6      -0.01626598      -0.01284566      -0.00516776
Cu       3.50502188       0.66131751      10.11107368        6       0.00214302       0.01071227      -0.02934063
Cu       6.05798952       0.66520581      10.10912965        6      -0.00440792      -0.00639037      -0.01699354
Cu       8.60750105       0.66553525      10.10443555        6       0.00553556      -0.01098363      -0.01220089
Cu       2.22558931       2.87595816      10.09577130        6       0.01432130      -0.01438221       0.00527085
Cu       4.78298769       2.87329576      10.10300416        6      -0.00965906       0.00393505      -0.00917303
Cu       7.33747674       2.87657552      10.10454818        6      -0.01802894      -0.00007054      -0.01693276
Cu       9.88597583       2.87647101      10.09752624        6      -0.00581580      -0.00975858      -0.00126964
Cu       3.50156136       5.08475032      10.09295542        6       0.00328438      -0.00052216       0.01308473
Cu       6.05828817       5.08842843      10.09866132        6      -0.00199094      -0.01042082      -0.00747641
Cu       8.61360342       5.08946618      10.09769715        6      -0.01765872      -0.01123111       0.00696923
Cu      11.16264648       5.08154070      10.09791370        6      -0.00561371       0.01272853       0.00035307
Cu       4.77803293       7.29621550      10.09750657        6      -0.00007801       0.00302052       0.00187119
Cu       7.33566556       7.30053564      10.10371572        6      -0.01073565      -0.02027528      -0.01028293
Cu       9.88859161       7.29570238      10.10434521        6      -0.00379704      -0.00628316      -0.00114989
Cu      12.43550049       7.29654459      10.09482823        6       0.00080986      -0.01131823       0.02151313
Cu      -0.32921223       1.39188951      12.15836885        5       0.00326023      -0.01278346       0.01318156
Cu       2.22337073       1.39115523      12.15656166        5       0.00301678      -0.00101015       0.03346822
Cu       4.77795531       1.39372094      12.16293359        5      -0.00213345      -0.00651759       0.02042544
Cu       7.33241820       1.39494093      12.16328476        5      -0.01384322      -0.01919265       0.02338296
Cu       0.94842701       3.60109928      12.15704027        5       0.00096507      -0.00970376       0.01935047
Cu       3.50023466       3.60516561      12.15558814        5      -0.00739800      -0.01720590       0.01161716
Cu       6.05688640       3.60397874      12.16002441        5      -0.01401479      -0.01524974       0.00594949
Cu       8.60908325       3.60175236      12.15847461        5       0.00082824      -0.00448556       0.01361028
Cu       2.22033174       5.80846211      12.15923744        5       0.00813596       0.01086431      -0.00517637
Cu       4.77799467       5.80964813      12.15550228        5      -0.01918174       0.00509608      -0.00096446
Cu       7.33099456       5.80895046      12.15997946        5       0.00069389       0.00977024      -0.01574630
Cu       9.88369122       5.80728979      12.16180515        5       0.00294851       0.01426173       0.00441957
Cu       3.49534758       8.01874376      12.15945816        5       0.00603998       0.00353586       0.00743938
Cu       6.05489958       8.01906083      12.15812756        5      -0.01460373       0.01560827       0.01055018
Cu       8.60883784       8.01966645      12.16431388        5       0.00009445       0.00984723       0.00540052
Cu      11.15932494       8.02377213      12.16526626        5      -0.00146711      -0.00505550       0.00559752
Cu      -0.34378172      -0.11220867      14.19787523        4       0.00379812      -0.00050804      -0.00184310
Cu       2.21639360      -0.11166592      14.20029935        4      -0.01051284       0.01372481      -0.01525155
Cu       4.76904388      -0.10558376      14.20964654        4      -0.00464046      -0.00481793      -0.01584829
Cu       7.32052551      -0.11145615      14.21110809        4      -0.01004744       0.00975533      -0.03029264
Cu       0.93794149       2.09912343      14.20008023        4       0.00200831       0.00332602      -0.01204898
Cu       3.49152456       2.10221445      14.20241601        4      -0.00634098      -0.00301579      -0.00491801
Cu       6.04063440       2.09999085      14.20801526        4       0.01134628       0.00482624      -0.02207719
Cu       8.59711299       2.09602558      14.20319109        4      -0.00692887       0.00516513      -0.00141596
Cu       2.21368083       4.31098696      14.20322275        4      -0.00548522      -0.00347259      -0.01761024
Cu       4.76340755       4.30967229      14.19736853        4      -0.00023732      -0.00289449       0.00083977
Cu       7.32304333       4.31185987      14.19484544        4      -0.00604576      -0.00620274       0.01280170
Cu       9.87433453       4.31019528      14.20269378        4      -0.00291128       0.00079103      -0.00715403
Cu       3.48938060       6.51594220      14.20112268        4      -0.00565116       0.00728175      -0.00631116
Cu       6.03889221       6.51922981      14.19339343        4       0.00048834       0.00356392       0.00876468
Cu       8.59484205       6.52370371      14.19650995        4       0.00828920      -0.00299716       0.01008044
Cu      11.15298900       6.52492457      14.20576145        4      -0.01637267      -0.00542427      -0.00722539
Cu       0.92219333       0.61616623      16.22086526        3      -0.00071540      -0.00227507       0.01114149
Cu       3.47542042       0.61608077      16.23495597        3       0.00729254       0.01115267      -0.00853544
Cu       6.02929847       0.61207066      16.24375277        3      -0.00091808       0.00318881       0.00426559
Cu       8.58062267       0.61111124      16.23794340        3      -0.00053746       0.00296351       0.00281948
Cu       2.20708321       2.82650458      16.22978080        3      -0.00982497      -0.00537713       0.00192577
Cu       4.75696763       2.82274249      16.23549082        3      -0.00401056      -0.00275848       0.00246958
Cu       7.30351243       2.82130820      16.23318143        3       0.01609907       0.00883712       0.01559368
Cu       9.85899451       2.82191622      16.22619290        3      -0.00180015       0.00491743       0.01594895
Cu       3.47752708       5.02906085      16.23112636        3      -0.00237351       0.00271391       0.00144359
Cu       6.02780946       5.02905124      16.22228576        3       0.00600410       0.01121512       0.01300282
Cu       8.58620604       5.03430966      16.22523826        3      -0.00398869      -0.00355498       0.00112911
Cu      11.13812429       5.03130721      16.23153728        3      -0.00387406       0.00493479      -0.01031139
Cu       4.74787343       7.24113868      16.22574386        3       0.00297232       0.00229806       0.00544222
Cu       7.30538143       7.24646937      16.22037001        3      -0.00376383      -0.00376661       0.00125781
Cu       9.85824452       7.24784549      16.23264037        3       0.01988241      -0.01243466      -0.02901327
Cu      12.41117782       7.24533612      16.23839668        3      -0.00214750      -0.00396709      -0.00115939
Cu      -0.36043111       1.35011302      18.26638091        2      -0.01422545       0.02156152       0.01884752
Cu       2.18613446       1.35342218      18.26435448        2       0.01477291       0.02313556      -0.01324449
Cu       4.73773612       1.35200674      18.28534320        2       0.00798936      -0.00095380      -0.02165064
Cu       7.29455986       1.34673168      18.28547674        2       0.00145809       0.01282281      -0.01205804
Cu       0.91248674       3.55569784      18.26670153        2       0.00215141       0.00922520      -0.00231811
Cu       3.46069164       3.55775176      18.27299880        2       0.01567924      -0.00094359       0.01975966
Cu       6.01352486       3.56027240      18.27438440        2       0.01174132      -0.00868016      -0.00949366
Cu       8.57155497       3.55770044      18.26853056        2       0.00590721      -0.00746405       0.00117378
Cu       2.18290541       5.76453457      18.26932453        2       0.02861847       0.00701195       0.01734147
Cu       4.73251251       5.76488113      18.26337919        2       0.00015318      -0.00238083      -0.01640787
Cu       7.29758816       5.76434248      18.25050985        2      -0.00741592      -0.01014520      -0.01099241
Cu       9.85589029       5.76457336      18.25990219        2      -0.00790540      -0.00506310       0.00705479
Cu       3.45981119       7.97788003      18.27446504        2       0.00307044      -0.00056758      -0.01796672
Cu       6.01822419       7.97901032      18.24657928        2      -0.01224507       0.00289792      -0.01446333
Cu       8.57628296       7.97680282      18.25013579        2       0.00909516       0.01813086       0.02528011
Cu      11.12448001       7.97472399      18.27842353        2       0.00121479       0.02640449       0.00799702
Cu      -0.36846978      -0.12421090      20.29332025        1       0.00056593       0.01545183       0.00537672
Cu       2.19849460      -0.11842506      20.27030912        1       0.00049192      -0.01273256       0.04024727
Cu       4.74270962      -0.13135723      20.33081518        1       0.01218675      -0.00288089      -0.02238200
Cu       7.29112053      -0.13474037      20.34423791        1      -0.00274266       0.01183048      -0.01700619
Cu       0.91384722       2.09040523      20.32631218        1      -0.00144248      -0.02742969      -0.01059876
Cu       3.46306669       2.08082367      20.34789520        1       0.00884802       0.00412663      -0.03007425
Cu       6.01511337       2.07916871      20.34365439        1       0.00696975      -0.00573275      -0.00672581
Cu       8.56686172       2.08524896      20.34166352        1       0.02413302      -0.01989942      -0.02267263
Cu       2.18827905       4.28641193      20.32776422        1       0.01556558       0.01211675       0.01754426
Cu       4.74135210       4.28531617      20.32862988        1      -0.01297141       0.00524547       0.00282688
Cu       7.29430244       4.28316160      20.32056696        1       0.00147877       0.01017420      -0.01346737
Cu       9.85187752       4.28627403      20.32123458        1      -0.00920443      -0.00356709       0.00315988
Cu       3.45409567       6.49913742      20.32802754        1       0.00910321      -0.02709669      -0.02912071
Cu       6.01038124       6.49321478      20.27152875        1       0.01805836      -0.00437109      -0.00172454
Cu       8.57890929       6.49549090      20.28195170        1      -0.01115231       0.01230356       0.00730022
Cu      11.12146068       6.49233312      20.32972986        1       0.02023650       0.02143541      -0.00273038
O       16.18741536       7.70470691      23.20248106        0       0.12368012      -0.04089570       0.05808259
C       17.22140274       7.14299451      23.31888350        0       0.11880253      -0.10955108       0.07797787
O       18.23934689       6.56700075      23.48868400        0      -0.23710150       0.14560582      -0.04436419
