99
Lattice="10.210621920333747 0.0 0.0 5.105310960166873 8.842657971447272 0.0 0.0 0.0 30.421172358872745" Properties=species:S:1:pos:R:3:tags:I:1:forces:R:3 energy=-440.1598205566406 free_energy=-440.1598205566406 stress="0.021636413410305977 2.9187649488449097e-06 6.51925802230835e-08 2.9187649488449097e-06 0.02157135307788849 -5.203252658247948e-05 6.51925802230835e-08 -5.203252658247948e-05 0.013549605384469032" pbc="T T F"
Cu       1.10299875       0.68202548      10.09243504        6      -0.04604998      -0.01771628      -0.03653097
Cu       3.65618346       0.67090252      10.08920677        6      -0.01420853       0.04010218      -0.04351333
Cu       6.20631508       0.69536222      10.08900039        6      -0.00694009      -0.01848297      -0.04294644
Cu       8.75429203       0.68638621      10.10940140        6      -0.01449164      -0.01809754      -0.08456473
Cu       2.37755800       2.90008564      10.05872376        6      -0.00806408      -0.03906658       0.04535205
Cu       4.93682658       2.89677377      10.08218417        6      -0.03721000       0.00717644      -0.00198964
Cu       7.49301496       2.91221764      10.10082176        6      -0.05186127      -0.01688605      -0.05403493
Cu      10.03426085       2.89636041      10.09365393        6      -0.00911111       0.00237375      -0.03550007
Cu       3.65030744       5.10616740      10.09081387        6       0.01477843       0.01900081      -0.02073278
Cu       6.21150628       5.12023420      10.10578247        6      -0.02620429      -0.03495598      -0.05506587
Cu       8.77672079       5.12163629      10.07775356        6      -0.07746704      -0.04658884       0.04323589
Cu      11.32119418       5.10746600      10.07509631        6      -0.03994273      -0.00357562       0.02430555
Cu       4.92626209       7.31331672      10.11400385        6      -0.01929224       0.00482166      -0.06121482
Cu       7.49019616       7.31863929      10.09480277        6      -0.03438741      -0.01737531      -0.01695352
Cu      10.04979077       7.31469906      10.06999319        6      -0.04649753       0.00633429       0.04114368
Cu      12.58360177       7.32624498      10.06121251        6       0.01230719      -0.03846501       0.07341950
Cu      -0.21045276       1.40659762      12.13685116        5       0.01998645      -0.01810656       0.08626184
Cu       2.34930727       1.40262159      12.12073198        5       0.00762614       0.01506781       0.15507227
Cu       4.89883020       1.40774239      12.13058220        5       0.01030065       0.03227721       0.13718848
Cu       7.45000364       1.42496835      12.14206321        5      -0.01439847      -0.04901055       0.09446515
Cu       1.07453678       3.61801245      12.13461226        5       0.00569361       0.00528062       0.07735201
Cu       3.62450651       3.62824162      12.13239415        5      -0.01871467      -0.07319892       0.07416793
Cu       6.17715200       3.63616774      12.14720199        5      -0.01850107      -0.08697129       0.04647082
Cu       8.73015005       3.62808534      12.15081982        5       0.01150260      -0.00101205       0.01707269
Cu       2.34930291       5.83004490      12.14476485        5      -0.02281021       0.01444235       0.00735218
Cu       4.90212776       5.82387819      12.16854525        5      -0.03213558       0.02436486      -0.01692844
Cu       7.45155651       5.83399746      12.16052295        5       0.02991913      -0.00285141      -0.02672939
Cu      10.00862076       5.83067892      12.14655828        5       0.02123342       0.00549299       0.02286203
Cu       3.61724229       8.03037790      12.15086624        5      -0.00165235       0.02138399       0.02066525
Cu       6.18262581       8.02611542      12.15300638        5      -0.02028432       0.06930610       0.04386288
Cu       8.74335843       8.03065335      12.14599157        5      -0.01311424       0.03344655       0.03320027
Cu      11.29034394       8.05035684      12.13770415        5      -0.01305145      -0.03291079       0.03864789
Cu      -0.24592309      -0.09375795      14.19210470        4       0.03833132       0.01755138      -0.03849223
Cu       2.32423455      -0.10381777      14.19738293        4      -0.03993678       0.08712468      -0.06167050
Cu       4.88095311      -0.09209046      14.19783571        4      -0.04927320       0.01343269      -0.03258178
Cu       7.42531373      -0.09049709      14.20362014        4      -0.04020938       0.03715752      -0.11187270
Cu       1.03720478       2.11094226      14.17412116        4       0.01211111       0.03835273       0.00044325
Cu       3.59067560       2.11197129      14.18346599        4      -0.01271499       0.00545539      -0.02170365
Cu       6.14027080       2.11578623      14.19984574        4       0.01038443       0.04189832      -0.08664185
Cu       8.69609566       2.11577918      14.19127317        4      -0.01827725       0.06410717      -0.03766159
Cu       2.31931755       4.33133837      14.19755128        4      -0.04409179      -0.02323025      -0.07050154
Cu       4.86628011       4.32029683      14.19946243        4      -0.00458996       0.00375289      -0.00250168
Cu       7.42176537       4.34031745      14.19421449        4      -0.00905645      -0.03798224       0.07095549
Cu       9.96928781       4.33697445      14.19836825        4       0.01517012       0.00847304      -0.05030017
Cu       3.58104106       6.53577764      14.20900565        4       0.04874107       0.03532304      -0.06868573
Cu       6.13381586       6.54551128      14.21398569        4       0.01721057       0.01226384      -0.02030671
Cu       8.69090810       6.54845847      14.19891115        4       0.06095292      -0.01411848       0.04226324
Cu      11.26121475       6.54939283      14.19851645        4      -0.10710441      -0.01883386      -0.03953133
Cu       0.99023619       0.65011139      16.21829535        3       0.02806490       0.00648051       0.03138522
Cu       3.54469155       0.64277867      16.23637603        3       0.04048890       0.05090086       0.01040710
Cu       6.10151054       0.65034571      16.23790926        3      -0.00490318       0.01408882       0.04634677
Cu       8.64979202       0.65810213      16.22559633        3       0.02013920       0.01048219       0.05103841
Cu       2.27124629       2.84823898      16.21182426        3      -0.00094368       0.01418064       0.02270625
Cu       4.82506334       2.84126356      16.23378606        3       0.00975427       0.05214306      -0.01441301
Cu       7.37321241       2.85660060      16.23360779        3       0.05804259       0.07444801       0.00222432
Cu       9.92688477       2.85871816      16.21791661        3      -0.02075136       0.01473220       0.01648666
Cu       3.56101709       5.07070986      16.23083508        3      -0.00744264      -0.00422240       0.00165938
Cu       6.10386768       5.07440912      16.23211243        3       0.04090984       0.01369936       0.07532844
Cu       8.65354605       5.08243145      16.24935194        3      -0.04506885      -0.06216875      -0.01805586
Cu      11.20463596       5.06553773      16.22614501        3       0.01512134       0.02466503      -0.02733931
Cu       4.81685484       7.29251608      16.23969679        3       0.04466721      -0.00347825       0.01716021
Cu       7.37710624       7.29204621      16.25363748        3      -0.02049947      -0.06562002      -0.03252160
Cu       9.92503445       7.28436705      16.24619959        3       0.05176945      -0.00598545      -0.09910298
Cu      12.48083254       7.29193163      16.23557301        3       0.00100763      -0.00631204       0.00098220
Cu      -0.31043064       1.39382760      18.26663386        2      -0.03725741       0.08978764       0.07453849
Cu       2.22822492       1.39539014      18.27677975        2       0.07538074       0.03780214      -0.01885915
Cu       4.78869070       1.40150067      18.29973962        2       0.03418379       0.02089935      -0.05327646
Cu       7.35051305       1.40750664      18.28842535        2      -0.01112746       0.04010464       0.00665756
Cu       0.94456582       3.59330865      18.24819745        2       0.04797553       0.05723261       0.06152526
Cu       3.50949109       3.60171113      18.24478411        2       0.00756610       0.00532910       0.04968870
Cu       6.07796056       3.62028154      18.26549570        2       0.02036112      -0.02584835       0.04013402
Cu       8.61994550       3.60518269      18.29819481        2       0.00779663       0.01822074      -0.05370629
Cu       2.23366648       5.82876730      18.24102903        2       0.06403087      -0.03612908       0.10911492
Cu       4.80186085       5.84310827      18.27548378        2      -0.01424770      -0.03998598      -0.06397384
Cu       7.35511792       5.84100696      18.32013578        2       0.00070146      -0.11049210      -0.11502313
Cu       9.90782323       5.82625308      18.27732382        2      -0.04820472      -0.07146878       0.06426968
Cu       3.51657003       8.06183184      18.27792184        2       0.00267461      -0.06391961      -0.03459888
Cu       6.08183608       8.04413354      18.28878341        2      -0.04044842      -0.01273099      -0.06855621
Cu       8.63870515       8.02936814      18.28488136        2      -0.02638488       0.02899785       0.11131334
Cu      11.17896014       8.03705623      18.27902808        2       0.01057112       0.04185647       0.05955475
Cu      -0.31716213      -0.03940129      20.33103757        1      -0.02129333      -0.03347920       0.01976569
Cu       2.23241109      -0.05367244      20.34000990        1       0.04583033      -0.03346809       0.03296746
Cu       4.77665397      -0.05605514      20.35529629        1       0.03094392      -0.02980672      -0.01663146
Cu       7.32880701      -0.03998025      20.34220635        1      -0.01135134      -0.04706978      -0.03057064
Cu       0.94538548       2.15339495      20.33807211        1      -0.00854789      -0.01225240      -0.00842493
Cu       3.49248318       2.15152266      20.34654586        1       0.02239266      -0.00597669      -0.04029603
Cu       6.05715922       2.15825887      20.35294052        1      -0.02626666      -0.03942537      -0.05072656
Cu       8.59536767       2.15236624      20.39871169        1       0.10177100      -0.03712947      -0.15177478
Cu       2.20385210       4.35165165      20.26944742        1       0.07769707       0.02698016       0.07244125
Cu       4.77267985       4.34933886      20.26433362        1      -0.01583389       0.04638400       0.04944417
Cu       7.33901898       4.34549766      20.37117365        1      -0.02052045       0.06474254      -0.13582194
Cu       9.88087180       4.35316522      20.34560153        1       0.02556933      -0.01441556      -0.02544706
Cu       3.49007573       6.59700383      20.29014740        1       0.02242437      -0.07873164      -0.05210070
Cu       6.06759356       6.59571681      20.34366908        1      -0.01574919      -0.06583817      -0.06813057
Cu       8.62175165       6.55736880      20.37859589        1      -0.01616626       0.06417398      -0.07758193
Cu      11.15262059       6.56196069      20.31861538        1       0.03269129       0.04606367       0.01149942
O       13.40303006       6.58295894      23.57117480        0       0.18476647      -0.08622431      -0.20204914
C       14.33988014       5.91508392      23.30457028        0       1.08349586      -0.84181833       0.36973447
O       15.30770288       5.20848626      23.19908046        0      -1.22038758       0.91328049      -0.00599514
